V -t * -v 1.0a5 -a 0
A -t * -n 1 -p 0 -o 0x7fffffff -c 30 -a 1
A -t * -h 1 -m 1073741823 -s 0
c -t * -i 1 -n Blue
c -t * -i 2 -n Red
n -t * -a 0 -s 0 -S UP -v circle -c black -i black
n -t * -a 1 -s 1 -S UP -v circle -c black -i black
n -t * -a 2 -s 2 -S UP -v circle -c black -i black
n -t * -a 3 -s 3 -S UP -v circle -c black -i black
l -t * -s 0 -d 2 -S UP -r 2000000 -D 0.01 -c black -o right-down
l -t * -s 1 -d 2 -S UP -r 2000000 -D 0.01 -c black -o right-up
l -t * -s 2 -d 3 -S UP -r 1700000 -D 0.02 -c black -o right
q -t * -s 3 -d 2 -a 0.5
q -t * -s 2 -d 3 -a 0.5
+ -t 1 -s 0 -d 2 -p tcp -e 40 -c 1 -i 0 -a 1 -x {0.0 3.0 0 C------ null}
- -t 1 -s 0 -d 2 -p tcp -e 40 -c 1 -i 0 -a 1 -x {0.0 3.0 0 C------ null}
h -t 1 -s 0 -d 2 -p tcp -e 40 -c 1 -i 0 -a 1 -x {0.0 3.0 -1 C------ null}
r -t 1.01016 -s 0 -d 2 -p tcp -e 40 -c 1 -i 0 -a 1 -x {0.0 3.0 0 C------ null}
+ -t 1.01016 -s 2 -d 3 -p tcp -e 40 -c 1 -i 0 -a 1 -x {0.0 3.0 0 C------ null}
- -t 1.01016 -s 2 -d 3 -p tcp -e 40 -c 1 -i 0 -a 1 -x {0.0 3.0 0 C------ null}
h -t 1.01016 -s 2 -d 3 -p tcp -e 40 -c 1 -i 0 -a 1 -x {0.0 3.0 -1 C------ null}
r -t 1.03034823529412 -s 2 -d 3 -p tcp -e 40 -c 1 -i 0 -a 1 -x {0.0 3.0 0 C------ null}
+ -t 1.03034823529412 -s 3 -d 2 -p ack -e 40 -c 1 -i 1 -a 1 -x {3.0 0.0 0 C------ null}
- -t 1.03034823529412 -s 3 -d 2 -p ack -e 40 -c 1 -i 1 -a 1 -x {3.0 0.0 0 C------ null}
h -t 1.03034823529412 -s 3 -d 2 -p ack -e 40 -c 1 -i 1 -a 1 -x {3.0 0.0 -1 C------ null}
r -t 1.05053647058824 -s 3 -d 2 -p ack -e 40 -c 1 -i 1 -a 1 -x {3.0 0.0 0 C------ null}
+ -t 1.05053647058824 -s 2 -d 0 -p ack -e 40 -c 1 -i 1 -a 1 -x {3.0 0.0 0 C------ null}
- -t 1.05053647058824 -s 2 -d 0 -p ack -e 40 -c 1 -i 1 -a 1 -x {3.0 0.0 0 C------ null}
h -t 1.05053647058824 -s 2 -d 0 -p ack -e 40 -c 1 -i 1 -a 1 -x {3.0 0.0 -1 C------ null}
r -t 1.06069647058824 -s 2 -d 0 -p ack -e 40 -c 1 -i 1 -a 1 -x {3.0 0.0 0 C------ null}
+ -t 1.06069647058824 -s 0 -d 2 -p tcp -e 1500 -c 1 -i 2 -a 1 -x {0.0 3.0 1 ------N null}
- -t 1.06069647058824 -s 0 -d 2 -p tcp -e 1500 -c 1 -i 2 -a 1 -x {0.0 3.0 1 ------N null}
h -t 1.06069647058824 -s 0 -d 2 -p tcp -e 1500 -c 1 -i 2 -a 1 -x {0.0 3.0 -1 ------N null}
r -t 1.07669647058824 -s 0 -d 2 -p tcp -e 1500 -c 1 -i 2 -a 1 -x {0.0 3.0 1 ------N null}
+ -t 1.07669647058824 -s 2 -d 3 -p tcp -e 1500 -c 1 -i 2 -a 1 -x {0.0 3.0 1 ------N null}
- -t 1.07669647058824 -s 2 -d 3 -p tcp -e 1500 -c 1 -i 2 -a 1 -x {0.0 3.0 1 ------N null}
h -t 1.07669647058824 -s 2 -d 3 -p tcp -e 1500 -c 1 -i 2 -a 1 -x {0.0 3.0 -1 ------N null}
r -t 1.10375529411765 -s 2 -d 3 -p tcp -e 1500 -c 1 -i 2 -a 1 -x {0.0 3.0 1 ------N null}
+ -t 1.10375529411765 -s 3 -d 2 -p ack -e 40 -c 1 -i 3 -a 1 -x {3.0 0.0 1 ------- null}
- -t 1.10375529411765 -s 3 -d 2 -p ack -e 40 -c 1 -i 3 -a 1 -x {3.0 0.0 1 ------- null}
h -t 1.10375529411765 -s 3 -d 2 -p ack -e 40 -c 1 -i 3 -a 1 -x {3.0 0.0 -1 ------- null}
r -t 1.12394352941176 -s 3 -d 2 -p ack -e 40 -c 1 -i 3 -a 1 -x {3.0 0.0 1 ------- null}
+ -t 1.12394352941176 -s 2 -d 0 -p ack -e 40 -c 1 -i 3 -a 1 -x {3.0 0.0 1 ------- null}
- -t 1.12394352941176 -s 2 -d 0 -p ack -e 40 -c 1 -i 3 -a 1 -x {3.0 0.0 1 ------- null}
h -t 1.12394352941176 -s 2 -d 0 -p ack -e 40 -c 1 -i 3 -a 1 -x {3.0 0.0 -1 ------- null}
r -t 1.13410352941176 -s 2 -d 0 -p ack -e 40 -c 1 -i 3 -a 1 -x {3.0 0.0 1 ------- null}
+ -t 1.13410352941176 -s 0 -d 2 -p tcp -e 1500 -c 1 -i 4 -a 1 -x {0.0 3.0 2 ------N null}
- -t 1.13410352941176 -s 0 -d 2 -p tcp -e 1500 -c 1 -i 4 -a 1 -x {0.0 3.0 2 ------N null}
h -t 1.13410352941176 -s 0 -d 2 -p tcp -e 1500 -c 1 -i 4 -a 1 -x {0.0 3.0 -1 ------N null}
+ -t 1.13410352941176 -s 0 -d 2 -p tcp -e 1500 -c 1 -i 5 -a 1 -x {0.0 3.0 3 ------N null}
- -t 1.14010352941176 -s 0 -d 2 -p tcp -e 1500 -c 1 -i 5 -a 1 -x {0.0 3.0 3 ------N null}
h -t 1.14010352941176 -s 0 -d 2 -p tcp -e 1500 -c 1 -i 5 -a 1 -x {0.0 3.0 -1 ------N null}
r -t 1.15010352941176 -s 0 -d 2 -p tcp -e 1500 -c 1 -i 4 -a 1 -x {0.0 3.0 2 ------N null}
+ -t 1.15010352941176 -s 2 -d 3 -p tcp -e 1500 -c 1 -i 4 -a 1 -x {0.0 3.0 2 ------N null}
- -t 1.15010352941176 -s 2 -d 3 -p tcp -e 1500 -c 1 -i 4 -a 1 -x {0.0 3.0 2 ------N null}
h -t 1.15010352941176 -s 2 -d 3 -p tcp -e 1500 -c 1 -i 4 -a 1 -x {0.0 3.0 -1 ------N null}
r -t 1.15610352941176 -s 0 -d 2 -p tcp -e 1500 -c 1 -i 5 -a 1 -x {0.0 3.0 3 ------N null}
+ -t 1.15610352941176 -s 2 -d 3 -p tcp -e 1500 -c 1 -i 5 -a 1 -x {0.0 3.0 3 ------N null}
- -t 1.15716235294118 -s 2 -d 3 -p tcp -e 1500 -c 1 -i 5 -a 1 -x {0.0 3.0 3 ------N null}
h -t 1.15716235294118 -s 2 -d 3 -p tcp -e 1500 -c 1 -i 5 -a 1 -x {0.0 3.0 -1 ------N null}
r -t 1.17716235294118 -s 2 -d 3 -p tcp -e 1500 -c 1 -i 4 -a 1 -x {0.0 3.0 2 ------N null}
+ -t 1.17716235294118 -s 3 -d 2 -p ack -e 40 -c 1 -i 6 -a 1 -x {3.0 0.0 2 ------- null}
- -t 1.17716235294118 -s 3 -d 2 -p ack -e 40 -c 1 -i 6 -a 1 -x {3.0 0.0 2 ------- null}
h -t 1.17716235294118 -s 3 -d 2 -p ack -e 40 -c 1 -i 6 -a 1 -x {3.0 0.0 -1 ------- null}
r -t 1.18422117647059 -s 2 -d 3 -p tcp -e 1500 -c 1 -i 5 -a 1 -x {0.0 3.0 3 ------N null}
+ -t 1.18422117647059 -s 3 -d 2 -p ack -e 40 -c 1 -i 7 -a 1 -x {3.0 0.0 3 ------- null}
- -t 1.18422117647059 -s 3 -d 2 -p ack -e 40 -c 1 -i 7 -a 1 -x {3.0 0.0 3 ------- null}
h -t 1.18422117647059 -s 3 -d 2 -p ack -e 40 -c 1 -i 7 -a 1 -x {3.0 0.0 -1 ------- null}
r -t 1.19735058823529 -s 3 -d 2 -p ack -e 40 -c 1 -i 6 -a 1 -x {3.0 0.0 2 ------- null}
+ -t 1.19735058823529 -s 2 -d 0 -p ack -e 40 -c 1 -i 6 -a 1 -x {3.0 0.0 2 ------- null}
- -t 1.19735058823529 -s 2 -d 0 -p ack -e 40 -c 1 -i 6 -a 1 -x {3.0 0.0 2 ------- null}
h -t 1.19735058823529 -s 2 -d 0 -p ack -e 40 -c 1 -i 6 -a 1 -x {3.0 0.0 -1 ------- null}
r -t 1.20440941176471 -s 3 -d 2 -p ack -e 40 -c 1 -i 7 -a 1 -x {3.0 0.0 3 ------- null}
+ -t 1.20440941176471 -s 2 -d 0 -p ack -e 40 -c 1 -i 7 -a 1 -x {3.0 0.0 3 ------- null}
- -t 1.20440941176471 -s 2 -d 0 -p ack -e 40 -c 1 -i 7 -a 1 -x {3.0 0.0 3 ------- null}
h -t 1.20440941176471 -s 2 -d 0 -p ack -e 40 -c 1 -i 7 -a 1 -x {3.0 0.0 -1 ------- null}
r -t 1.20751058823529 -s 2 -d 0 -p ack -e 40 -c 1 -i 6 -a 1 -x {3.0 0.0 2 ------- null}
+ -t 1.20751058823529 -s 0 -d 2 -p tcp -e 1500 -c 1 -i 8 -a 1 -x {0.0 3.0 4 ------N null}
- -t 1.20751058823529 -s 0 -d 2 -p tcp -e 1500 -c 1 -i 8 -a 1 -x {0.0 3.0 4 ------N null}
h -t 1.20751058823529 -s 0 -d 2 -p tcp -e 1500 -c 1 -i 8 -a 1 -x {0.0 3.0 -1 ------N null}
+ -t 1.20751058823529 -s 0 -d 2 -p tcp -e 1500 -c 1 -i 9 -a 1 -x {0.0 3.0 5 ------N null}
- -t 1.21351058823529 -s 0 -d 2 -p tcp -e 1500 -c 1 -i 9 -a 1 -x {0.0 3.0 5 ------N null}
h -t 1.21351058823529 -s 0 -d 2 -p tcp -e 1500 -c 1 -i 9 -a 1 -x {0.0 3.0 -1 ------N null}
r -t 1.21456941176471 -s 2 -d 0 -p ack -e 40 -c 1 -i 7 -a 1 -x {3.0 0.0 3 ------- null}
+ -t 1.21456941176471 -s 0 -d 2 -p tcp -e 1500 -c 1 -i 10 -a 1 -x {0.0 3.0 6 ------N null}
+ -t 1.21456941176471 -s 0 -d 2 -p tcp -e 1500 -c 1 -i 11 -a 1 -x {0.0 3.0 7 ------N null}
- -t 1.21951058823529 -s 0 -d 2 -p tcp -e 1500 -c 1 -i 10 -a 1 -x {0.0 3.0 6 ------N null}
h -t 1.21951058823529 -s 0 -d 2 -p tcp -e 1500 -c 1 -i 10 -a 1 -x {0.0 3.0 -1 ------N null}
r -t 1.22351058823529 -s 0 -d 2 -p tcp -e 1500 -c 1 -i 8 -a 1 -x {0.0 3.0 4 ------N null}
+ -t 1.22351058823529 -s 2 -d 3 -p tcp -e 1500 -c 1 -i 8 -a 1 -x {0.0 3.0 4 ------N null}
- -t 1.22351058823529 -s 2 -d 3 -p tcp -e 1500 -c 1 -i 8 -a 1 -x {0.0 3.0 4 ------N null}
h -t 1.22351058823529 -s 2 -d 3 -p tcp -e 1500 -c 1 -i 8 -a 1 -x {0.0 3.0 -1 ------N null}
- -t 1.22551058823529 -s 0 -d 2 -p tcp -e 1500 -c 1 -i 11 -a 1 -x {0.0 3.0 7 ------N null}
h -t 1.22551058823529 -s 0 -d 2 -p tcp -e 1500 -c 1 -i 11 -a 1 -x {0.0 3.0 -1 ------N null}
r -t 1.22951058823529 -s 0 -d 2 -p tcp -e 1500 -c 1 -i 9 -a 1 -x {0.0 3.0 5 ------N null}
+ -t 1.22951058823529 -s 2 -d 3 -p tcp -e 1500 -c 1 -i 9 -a 1 -x {0.0 3.0 5 ------N null}
- -t 1.23056941176471 -s 2 -d 3 -p tcp -e 1500 -c 1 -i 9 -a 1 -x {0.0 3.0 5 ------N null}
h -t 1.23056941176471 -s 2 -d 3 -p tcp -e 1500 -c 1 -i 9 -a 1 -x {0.0 3.0 -1 ------N null}
r -t 1.23551058823529 -s 0 -d 2 -p tcp -e 1500 -c 1 -i 10 -a 1 -x {0.0 3.0 6 ------N null}
+ -t 1.23551058823529 -s 2 -d 3 -p tcp -e 1500 -c 1 -i 10 -a 1 -x {0.0 3.0 6 ------N null}
- -t 1.23762823529412 -s 2 -d 3 -p tcp -e 1500 -c 1 -i 10 -a 1 -x {0.0 3.0 6 ------N null}
h -t 1.23762823529412 -s 2 -d 3 -p tcp -e 1500 -c 1 -i 10 -a 1 -x {0.0 3.0 -1 ------N null}
r -t 1.24151058823529 -s 0 -d 2 -p tcp -e 1500 -c 1 -i 11 -a 1 -x {0.0 3.0 7 ------N null}
+ -t 1.24151058823529 -s 2 -d 3 -p tcp -e 1500 -c 1 -i 11 -a 1 -x {0.0 3.0 7 ------N null}
- -t 1.24468705882353 -s 2 -d 3 -p tcp -e 1500 -c 1 -i 11 -a 1 -x {0.0 3.0 7 ------N null}
h -t 1.24468705882353 -s 2 -d 3 -p tcp -e 1500 -c 1 -i 11 -a 1 -x {0.0 3.0 -1 ------N null}
r -t 1.25056941176471 -s 2 -d 3 -p tcp -e 1500 -c 1 -i 8 -a 1 -x {0.0 3.0 4 ------N null}
+ -t 1.25056941176471 -s 3 -d 2 -p ack -e 40 -c 1 -i 12 -a 1 -x {3.0 0.0 4 ------- null}
- -t 1.25056941176471 -s 3 -d 2 -p ack -e 40 -c 1 -i 12 -a 1 -x {3.0 0.0 4 ------- null}
h -t 1.25056941176471 -s 3 -d 2 -p ack -e 40 -c 1 -i 12 -a 1 -x {3.0 0.0 -1 ------- null}
r -t 1.25762823529412 -s 2 -d 3 -p tcp -e 1500 -c 1 -i 9 -a 1 -x {0.0 3.0 5 ------N null}
+ -t 1.25762823529412 -s 3 -d 2 -p ack -e 40 -c 1 -i 13 -a 1 -x {3.0 0.0 5 ------- null}
- -t 1.25762823529412 -s 3 -d 2 -p ack -e 40 -c 1 -i 13 -a 1 -x {3.0 0.0 5 ------- null}
h -t 1.25762823529412 -s 3 -d 2 -p ack -e 40 -c 1 -i 13 -a 1 -x {3.0 0.0 -1 ------- null}
r -t 1.26468705882353 -s 2 -d 3 -p tcp -e 1500 -c 1 -i 10 -a 1 -x {0.0 3.0 6 ------N null}
+ -t 1.26468705882353 -s 3 -d 2 -p ack -e 40 -c 1 -i 14 -a 1 -x {3.0 0.0 6 ------- null}
- -t 1.26468705882353 -s 3 -d 2 -p ack -e 40 -c 1 -i 14 -a 1 -x {3.0 0.0 6 ------- null}
h -t 1.26468705882353 -s 3 -d 2 -p ack -e 40 -c 1 -i 14 -a 1 -x {3.0 0.0 -1 ------- null}
r -t 1.27075764705882 -s 3 -d 2 -p ack -e 40 -c 1 -i 12 -a 1 -x {3.0 0.0 4 ------- null}
+ -t 1.27075764705882 -s 2 -d 0 -p ack -e 40 -c 1 -i 12 -a 1 -x {3.0 0.0 4 ------- null}
- -t 1.27075764705882 -s 2 -d 0 -p ack -e 40 -c 1 -i 12 -a 1 -x {3.0 0.0 4 ------- null}
h -t 1.27075764705882 -s 2 -d 0 -p ack -e 40 -c 1 -i 12 -a 1 -x {3.0 0.0 -1 ------- null}
r -t 1.27174588235294 -s 2 -d 3 -p tcp -e 1500 -c 1 -i 11 -a 1 -x {0.0 3.0 7 ------N null}
+ -t 1.27174588235294 -s 3 -d 2 -p ack -e 40 -c 1 -i 15 -a 1 -x {3.0 0.0 7 ------- null}
- -t 1.27174588235294 -s 3 -d 2 -p ack -e 40 -c 1 -i 15 -a 1 -x {3.0 0.0 7 ------- null}
h -t 1.27174588235294 -s 3 -d 2 -p ack -e 40 -c 1 -i 15 -a 1 -x {3.0 0.0 -1 ------- null}
r -t 1.27781647058824 -s 3 -d 2 -p ack -e 40 -c 1 -i 13 -a 1 -x {3.0 0.0 5 ------- null}
+ -t 1.27781647058824 -s 2 -d 0 -p ack -e 40 -c 1 -i 13 -a 1 -x {3.0 0.0 5 ------- null}
- -t 1.27781647058824 -s 2 -d 0 -p ack -e 40 -c 1 -i 13 -a 1 -x {3.0 0.0 5 ------- null}
h -t 1.27781647058824 -s 2 -d 0 -p ack -e 40 -c 1 -i 13 -a 1 -x {3.0 0.0 -1 ------- null}
r -t 1.28091764705882 -s 2 -d 0 -p ack -e 40 -c 1 -i 12 -a 1 -x {3.0 0.0 4 ------- null}
+ -t 1.28091764705882 -s 0 -d 2 -p tcp -e 1500 -c 1 -i 16 -a 1 -x {0.0 3.0 8 ------N null}
- -t 1.28091764705882 -s 0 -d 2 -p tcp -e 1500 -c 1 -i 16 -a 1 -x {0.0 3.0 8 ------N null}
h -t 1.28091764705882 -s 0 -d 2 -p tcp -e 1500 -c 1 -i 16 -a 1 -x {0.0 3.0 -1 ------N null}
+ -t 1.28091764705882 -s 0 -d 2 -p tcp -e 1500 -c 1 -i 17 -a 1 -x {0.0 3.0 9 ------N null}
r -t 1.28487529411765 -s 3 -d 2 -p ack -e 40 -c 1 -i 14 -a 1 -x {3.0 0.0 6 ------- null}
+ -t 1.28487529411765 -s 2 -d 0 -p ack -e 40 -c 1 -i 14 -a 1 -x {3.0 0.0 6 ------- null}
- -t 1.28487529411765 -s 2 -d 0 -p ack -e 40 -c 1 -i 14 -a 1 -x {3.0 0.0 6 ------- null}
h -t 1.28487529411765 -s 2 -d 0 -p ack -e 40 -c 1 -i 14 -a 1 -x {3.0 0.0 -1 ------- null}
- -t 1.28691764705882 -s 0 -d 2 -p tcp -e 1500 -c 1 -i 17 -a 1 -x {0.0 3.0 9 ------N null}
h -t 1.28691764705882 -s 0 -d 2 -p tcp -e 1500 -c 1 -i 17 -a 1 -x {0.0 3.0 -1 ------N null}
r -t 1.28797647058824 -s 2 -d 0 -p ack -e 40 -c 1 -i 13 -a 1 -x {3.0 0.0 5 ------- null}
+ -t 1.28797647058824 -s 0 -d 2 -p tcp -e 1500 -c 1 -i 18 -a 1 -x {0.0 3.0 10 ------N null}
+ -t 1.28797647058824 -s 0 -d 2 -p tcp -e 1500 -c 1 -i 19 -a 1 -x {0.0 3.0 11 ------N null}
r -t 1.29193411764706 -s 3 -d 2 -p ack -e 40 -c 1 -i 15 -a 1 -x {3.0 0.0 7 ------- null}
+ -t 1.29193411764706 -s 2 -d 0 -p ack -e 40 -c 1 -i 15 -a 1 -x {3.0 0.0 7 ------- null}
- -t 1.29193411764706 -s 2 -d 0 -p ack -e 40 -c 1 -i 15 -a 1 -x {3.0 0.0 7 ------- null}
h -t 1.29193411764706 -s 2 -d 0 -p ack -e 40 -c 1 -i 15 -a 1 -x {3.0 0.0 -1 ------- null}
- -t 1.29291764705882 -s 0 -d 2 -p tcp -e 1500 -c 1 -i 18 -a 1 -x {0.0 3.0 10 ------N null}
h -t 1.29291764705882 -s 0 -d 2 -p tcp -e 1500 -c 1 -i 18 -a 1 -x {0.0 3.0 -1 ------N null}
r -t 1.29503529411765 -s 2 -d 0 -p ack -e 40 -c 1 -i 14 -a 1 -x {3.0 0.0 6 ------- null}
+ -t 1.29503529411765 -s 0 -d 2 -p tcp -e 1500 -c 1 -i 20 -a 1 -x {0.0 3.0 12 ------N null}
+ -t 1.29503529411765 -s 0 -d 2 -p tcp -e 1500 -c 1 -i 21 -a 1 -x {0.0 3.0 13 ------N null}
r -t 1.29691764705882 -s 0 -d 2 -p tcp -e 1500 -c 1 -i 16 -a 1 -x {0.0 3.0 8 ------N null}
+ -t 1.29691764705882 -s 2 -d 3 -p tcp -e 1500 -c 1 -i 16 -a 1 -x {0.0 3.0 8 ------N null}
- -t 1.29691764705882 -s 2 -d 3 -p tcp -e 1500 -c 1 -i 16 -a 1 -x {0.0 3.0 8 ------N null}
h -t 1.29691764705882 -s 2 -d 3 -p tcp -e 1500 -c 1 -i 16 -a 1 -x {0.0 3.0 -1 ------N null}
- -t 1.29891764705882 -s 0 -d 2 -p tcp -e 1500 -c 1 -i 19 -a 1 -x {0.0 3.0 11 ------N null}
h -t 1.29891764705882 -s 0 -d 2 -p tcp -e 1500 -c 1 -i 19 -a 1 -x {0.0 3.0 -1 ------N null}
r -t 1.30209411764706 -s 2 -d 0 -p ack -e 40 -c 1 -i 15 -a 1 -x {3.0 0.0 7 ------- null}
+ -t 1.30209411764706 -s 0 -d 2 -p tcp -e 1500 -c 1 -i 22 -a 1 -x {0.0 3.0 14 ------N null}
+ -t 1.30209411764706 -s 0 -d 2 -p tcp -e 1500 -c 1 -i 23 -a 1 -x {0.0 3.0 15 ------N null}
r -t 1.30291764705882 -s 0 -d 2 -p tcp -e 1500 -c 1 -i 17 -a 1 -x {0.0 3.0 9 ------N null}
+ -t 1.30291764705882 -s 2 -d 3 -p tcp -e 1500 -c 1 -i 17 -a 1 -x {0.0 3.0 9 ------N null}
- -t 1.30397647058824 -s 2 -d 3 -p tcp -e 1500 -c 1 -i 17 -a 1 -x {0.0 3.0 9 ------N null}
h -t 1.30397647058824 -s 2 -d 3 -p tcp -e 1500 -c 1 -i 17 -a 1 -x {0.0 3.0 -1 ------N null}
- -t 1.30491764705882 -s 0 -d 2 -p tcp -e 1500 -c 1 -i 20 -a 1 -x {0.0 3.0 12 ------N null}
h -t 1.30491764705882 -s 0 -d 2 -p tcp -e 1500 -c 1 -i 20 -a 1 -x {0.0 3.0 -1 ------N null}
r -t 1.30891764705882 -s 0 -d 2 -p tcp -e 1500 -c 1 -i 18 -a 1 -x {0.0 3.0 10 ------N null}
+ -t 1.30891764705882 -s 2 -d 3 -p tcp -e 1500 -c 1 -i 18 -a 1 -x {0.0 3.0 10 ------N null}
- -t 1.31091764705882 -s 0 -d 2 -p tcp -e 1500 -c 1 -i 21 -a 1 -x {0.0 3.0 13 ------N null}
h -t 1.31091764705882 -s 0 -d 2 -p tcp -e 1500 -c 1 -i 21 -a 1 -x {0.0 3.0 -1 ------N null}
- -t 1.31103529411765 -s 2 -d 3 -p tcp -e 1500 -c 1 -i 18 -a 1 -x {0.0 3.0 10 ------N null}
h -t 1.31103529411765 -s 2 -d 3 -p tcp -e 1500 -c 1 -i 18 -a 1 -x {0.0 3.0 -1 ------N null}
r -t 1.31491764705882 -s 0 -d 2 -p tcp -e 1500 -c 1 -i 19 -a 1 -x {0.0 3.0 11 ------N null}
+ -t 1.31491764705882 -s 2 -d 3 -p tcp -e 1500 -c 1 -i 19 -a 1 -x {0.0 3.0 11 ------N null}
- -t 1.31691764705882 -s 0 -d 2 -p tcp -e 1500 -c 1 -i 22 -a 1 -x {0.0 3.0 14 ------N null}
h -t 1.31691764705882 -s 0 -d 2 -p tcp -e 1500 -c 1 -i 22 -a 1 -x {0.0 3.0 -1 ------N null}
- -t 1.31809411764706 -s 2 -d 3 -p tcp -e 1500 -c 1 -i 19 -a 1 -x {0.0 3.0 11 ------N null}
h -t 1.31809411764706 -s 2 -d 3 -p tcp -e 1500 -c 1 -i 19 -a 1 -x {0.0 3.0 -1 ------N null}
r -t 1.32091764705882 -s 0 -d 2 -p tcp -e 1500 -c 1 -i 20 -a 1 -x {0.0 3.0 12 ------N null}
+ -t 1.32091764705882 -s 2 -d 3 -p tcp -e 1500 -c 1 -i 20 -a 1 -x {0.0 3.0 12 ------N null}
- -t 1.32291764705882 -s 0 -d 2 -p tcp -e 1500 -c 1 -i 23 -a 1 -x {0.0 3.0 15 ------N null}
h -t 1.32291764705882 -s 0 -d 2 -p tcp -e 1500 -c 1 -i 23 -a 1 -x {0.0 3.0 -1 ------N null}
r -t 1.32397647058824 -s 2 -d 3 -p tcp -e 1500 -c 1 -i 16 -a 1 -x {0.0 3.0 8 ------N null}
+ -t 1.32397647058824 -s 3 -d 2 -p ack -e 40 -c 1 -i 24 -a 1 -x {3.0 0.0 8 ------- null}
- -t 1.32397647058824 -s 3 -d 2 -p ack -e 40 -c 1 -i 24 -a 1 -x {3.0 0.0 8 ------- null}
h -t 1.32397647058824 -s 3 -d 2 -p ack -e 40 -c 1 -i 24 -a 1 -x {3.0 0.0 -1 ------- null}
- -t 1.32515294117647 -s 2 -d 3 -p tcp -e 1500 -c 1 -i 20 -a 1 -x {0.0 3.0 12 ------N null}
h -t 1.32515294117647 -s 2 -d 3 -p tcp -e 1500 -c 1 -i 20 -a 1 -x {0.0 3.0 -1 ------N null}
r -t 1.32691764705882 -s 0 -d 2 -p tcp -e 1500 -c 1 -i 21 -a 1 -x {0.0 3.0 13 ------N null}
+ -t 1.32691764705882 -s 2 -d 3 -p tcp -e 1500 -c 1 -i 21 -a 1 -x {0.0 3.0 13 ------N null}
r -t 1.33103529411765 -s 2 -d 3 -p tcp -e 1500 -c 1 -i 17 -a 1 -x {0.0 3.0 9 ------N null}
+ -t 1.33103529411765 -s 3 -d 2 -p ack -e 40 -c 1 -i 25 -a 1 -x {3.0 0.0 9 ------- null}
- -t 1.33103529411765 -s 3 -d 2 -p ack -e 40 -c 1 -i 25 -a 1 -x {3.0 0.0 9 ------- null}
h -t 1.33103529411765 -s 3 -d 2 -p ack -e 40 -c 1 -i 25 -a 1 -x {3.0 0.0 -1 ------- null}
- -t 1.33221176470588 -s 2 -d 3 -p tcp -e 1500 -c 1 -i 21 -a 1 -x {0.0 3.0 13 ------N null}
h -t 1.33221176470588 -s 2 -d 3 -p tcp -e 1500 -c 1 -i 21 -a 1 -x {0.0 3.0 -1 ------N null}
r -t 1.33291764705882 -s 0 -d 2 -p tcp -e 1500 -c 1 -i 22 -a 1 -x {0.0 3.0 14 ------N null}
+ -t 1.33291764705882 -s 2 -d 3 -p tcp -e 1500 -c 1 -i 22 -a 1 -x {0.0 3.0 14 ------N null}
r -t 1.33809411764706 -s 2 -d 3 -p tcp -e 1500 -c 1 -i 18 -a 1 -x {0.0 3.0 10 ------N null}
+ -t 1.33809411764706 -s 3 -d 2 -p ack -e 40 -c 1 -i 26 -a 1 -x {3.0 0.0 10 ------- null}
- -t 1.33809411764706 -s 3 -d 2 -p ack -e 40 -c 1 -i 26 -a 1 -x {3.0 0.0 10 ------- null}
h -t 1.33809411764706 -s 3 -d 2 -p ack -e 40 -c 1 -i 26 -a 1 -x {3.0 0.0 -1 ------- null}
r -t 1.33891764705882 -s 0 -d 2 -p tcp -e 1500 -c 1 -i 23 -a 1 -x {0.0 3.0 15 ------N null}
+ -t 1.33891764705882 -s 2 -d 3 -p tcp -e 1500 -c 1 -i 23 -a 1 -x {0.0 3.0 15 ------N null}
- -t 1.33927058823529 -s 2 -d 3 -p tcp -e 1500 -c 1 -i 22 -a 1 -x {0.0 3.0 14 ------N null}
h -t 1.33927058823529 -s 2 -d 3 -p tcp -e 1500 -c 1 -i 22 -a 1 -x {0.0 3.0 -1 ------N null}
r -t 1.34416470588235 -s 3 -d 2 -p ack -e 40 -c 1 -i 24 -a 1 -x {3.0 0.0 8 ------- null}
+ -t 1.34416470588235 -s 2 -d 0 -p ack -e 40 -c 1 -i 24 -a 1 -x {3.0 0.0 8 ------- null}
- -t 1.34416470588235 -s 2 -d 0 -p ack -e 40 -c 1 -i 24 -a 1 -x {3.0 0.0 8 ------- null}
h -t 1.34416470588235 -s 2 -d 0 -p ack -e 40 -c 1 -i 24 -a 1 -x {3.0 0.0 -1 ------- null}
r -t 1.34515294117647 -s 2 -d 3 -p tcp -e 1500 -c 1 -i 19 -a 1 -x {0.0 3.0 11 ------N null}
+ -t 1.34515294117647 -s 3 -d 2 -p ack -e 40 -c 1 -i 27 -a 1 -x {3.0 0.0 11 ------- null}
- -t 1.34515294117647 -s 3 -d 2 -p ack -e 40 -c 1 -i 27 -a 1 -x {3.0 0.0 11 ------- null}
h -t 1.34515294117647 -s 3 -d 2 -p ack -e 40 -c 1 -i 27 -a 1 -x {3.0 0.0 -1 ------- null}
- -t 1.34632941176471 -s 2 -d 3 -p tcp -e 1500 -c 1 -i 23 -a 1 -x {0.0 3.0 15 ------N null}
h -t 1.34632941176471 -s 2 -d 3 -p tcp -e 1500 -c 1 -i 23 -a 1 -x {0.0 3.0 -1 ------N null}
r -t 1.35122352941176 -s 3 -d 2 -p ack -e 40 -c 1 -i 25 -a 1 -x {3.0 0.0 9 ------- null}
+ -t 1.35122352941176 -s 2 -d 0 -p ack -e 40 -c 1 -i 25 -a 1 -x {3.0 0.0 9 ------- null}
- -t 1.35122352941176 -s 2 -d 0 -p ack -e 40 -c 1 -i 25 -a 1 -x {3.0 0.0 9 ------- null}
h -t 1.35122352941176 -s 2 -d 0 -p ack -e 40 -c 1 -i 25 -a 1 -x {3.0 0.0 -1 ------- null}
r -t 1.35221176470588 -s 2 -d 3 -p tcp -e 1500 -c 1 -i 20 -a 1 -x {0.0 3.0 12 ------N null}
+ -t 1.35221176470588 -s 3 -d 2 -p ack -e 40 -c 1 -i 28 -a 1 -x {3.0 0.0 12 ------- null}
- -t 1.35221176470588 -s 3 -d 2 -p ack -e 40 -c 1 -i 28 -a 1 -x {3.0 0.0 12 ------- null}
h -t 1.35221176470588 -s 3 -d 2 -p ack -e 40 -c 1 -i 28 -a 1 -x {3.0 0.0 -1 ------- null}
r -t 1.35432470588235 -s 2 -d 0 -p ack -e 40 -c 1 -i 24 -a 1 -x {3.0 0.0 8 ------- null}
+ -t 1.35432470588235 -s 0 -d 2 -p tcp -e 1500 -c 1 -i 29 -a 1 -x {0.0 3.0 16 ------N null}
- -t 1.35432470588235 -s 0 -d 2 -p tcp -e 1500 -c 1 -i 29 -a 1 -x {0.0 3.0 16 ------N null}
h -t 1.35432470588235 -s 0 -d 2 -p tcp -e 1500 -c 1 -i 29 -a 1 -x {0.0 3.0 -1 ------N null}
+ -t 1.35432470588235 -s 0 -d 2 -p tcp -e 1500 -c 1 -i 30 -a 1 -x {0.0 3.0 17 ------N null}
r -t 1.35828235294118 -s 3 -d 2 -p ack -e 40 -c 1 -i 26 -a 1 -x {3.0 0.0 10 ------- null}
+ -t 1.35828235294118 -s 2 -d 0 -p ack -e 40 -c 1 -i 26 -a 1 -x {3.0 0.0 10 ------- null}
- -t 1.35828235294118 -s 2 -d 0 -p ack -e 40 -c 1 -i 26 -a 1 -x {3.0 0.0 10 ------- null}
h -t 1.35828235294118 -s 2 -d 0 -p ack -e 40 -c 1 -i 26 -a 1 -x {3.0 0.0 -1 ------- null}
r -t 1.35927058823529 -s 2 -d 3 -p tcp -e 1500 -c 1 -i 21 -a 1 -x {0.0 3.0 13 ------N null}
+ -t 1.35927058823529 -s 3 -d 2 -p ack -e 40 -c 1 -i 31 -a 1 -x {3.0 0.0 13 ------- null}
- -t 1.35927058823529 -s 3 -d 2 -p ack -e 40 -c 1 -i 31 -a 1 -x {3.0 0.0 13 ------- null}
h -t 1.35927058823529 -s 3 -d 2 -p ack -e 40 -c 1 -i 31 -a 1 -x {3.0 0.0 -1 ------- null}
- -t 1.36032470588235 -s 0 -d 2 -p tcp -e 1500 -c 1 -i 30 -a 1 -x {0.0 3.0 17 ------N null}
h -t 1.36032470588235 -s 0 -d 2 -p tcp -e 1500 -c 1 -i 30 -a 1 -x {0.0 3.0 -1 ------N null}
r -t 1.36138352941176 -s 2 -d 0 -p ack -e 40 -c 1 -i 25 -a 1 -x {3.0 0.0 9 ------- null}
+ -t 1.36138352941176 -s 0 -d 2 -p tcp -e 1500 -c 1 -i 32 -a 1 -x {0.0 3.0 18 ------N null}
+ -t 1.36138352941176 -s 0 -d 2 -p tcp -e 1500 -c 1 -i 33 -a 1 -x {0.0 3.0 19 ------N null}
r -t 1.36534117647059 -s 3 -d 2 -p ack -e 40 -c 1 -i 27 -a 1 -x {3.0 0.0 11 ------- null}
+ -t 1.36534117647059 -s 2 -d 0 -p ack -e 40 -c 1 -i 27 -a 1 -x {3.0 0.0 11 ------- null}
- -t 1.36534117647059 -s 2 -d 0 -p ack -e 40 -c 1 -i 27 -a 1 -x {3.0 0.0 11 ------- null}
h -t 1.36534117647059 -s 2 -d 0 -p ack -e 40 -c 1 -i 27 -a 1 -x {3.0 0.0 -1 ------- null}
- -t 1.36632470588235 -s 0 -d 2 -p tcp -e 1500 -c 1 -i 32 -a 1 -x {0.0 3.0 18 ------N null}
h -t 1.36632470588235 -s 0 -d 2 -p tcp -e 1500 -c 1 -i 32 -a 1 -x {0.0 3.0 -1 ------N null}
r -t 1.36632941176471 -s 2 -d 3 -p tcp -e 1500 -c 1 -i 22 -a 1 -x {0.0 3.0 14 ------N null}
+ -t 1.36632941176471 -s 3 -d 2 -p ack -e 40 -c 1 -i 34 -a 1 -x {3.0 0.0 14 ------- null}
- -t 1.36632941176471 -s 3 -d 2 -p ack -e 40 -c 1 -i 34 -a 1 -x {3.0 0.0 14 ------- null}
h -t 1.36632941176471 -s 3 -d 2 -p ack -e 40 -c 1 -i 34 -a 1 -x {3.0 0.0 -1 ------- null}
r -t 1.36844235294118 -s 2 -d 0 -p ack -e 40 -c 1 -i 26 -a 1 -x {3.0 0.0 10 ------- null}
+ -t 1.36844235294118 -s 0 -d 2 -p tcp -e 1500 -c 1 -i 35 -a 1 -x {0.0 3.0 20 ------N null}
+ -t 1.36844235294118 -s 0 -d 2 -p tcp -e 1500 -c 1 -i 36 -a 1 -x {0.0 3.0 21 ------N null}
r -t 1.37032470588235 -s 0 -d 2 -p tcp -e 1500 -c 1 -i 29 -a 1 -x {0.0 3.0 16 ------N null}
+ -t 1.37032470588235 -s 2 -d 3 -p tcp -e 1500 -c 1 -i 29 -a 1 -x {0.0 3.0 16 ------N null}
- -t 1.37032470588235 -s 2 -d 3 -p tcp -e 1500 -c 1 -i 29 -a 1 -x {0.0 3.0 16 ------N null}
h -t 1.37032470588235 -s 2 -d 3 -p tcp -e 1500 -c 1 -i 29 -a 1 -x {0.0 3.0 -1 ------N null}
- -t 1.37232470588235 -s 0 -d 2 -p tcp -e 1500 -c 1 -i 33 -a 1 -x {0.0 3.0 19 ------N null}
h -t 1.37232470588235 -s 0 -d 2 -p tcp -e 1500 -c 1 -i 33 -a 1 -x {0.0 3.0 -1 ------N null}
r -t 1.3724 -s 3 -d 2 -p ack -e 40 -c 1 -i 28 -a 1 -x {3.0 0.0 12 ------- null}
+ -t 1.3724 -s 2 -d 0 -p ack -e 40 -c 1 -i 28 -a 1 -x {3.0 0.0 12 ------- null}
- -t 1.3724 -s 2 -d 0 -p ack -e 40 -c 1 -i 28 -a 1 -x {3.0 0.0 12 ------- null}
h -t 1.3724 -s 2 -d 0 -p ack -e 40 -c 1 -i 28 -a 1 -x {3.0 0.0 -1 ------- null}
r -t 1.37338823529412 -s 2 -d 3 -p tcp -e 1500 -c 1 -i 23 -a 1 -x {0.0 3.0 15 ------N null}
+ -t 1.37338823529412 -s 3 -d 2 -p ack -e 40 -c 1 -i 37 -a 1 -x {3.0 0.0 15 ------- null}
- -t 1.37338823529412 -s 3 -d 2 -p ack -e 40 -c 1 -i 37 -a 1 -x {3.0 0.0 15 ------- null}
h -t 1.37338823529412 -s 3 -d 2 -p ack -e 40 -c 1 -i 37 -a 1 -x {3.0 0.0 -1 ------- null}
r -t 1.37550117647059 -s 2 -d 0 -p ack -e 40 -c 1 -i 27 -a 1 -x {3.0 0.0 11 ------- null}
+ -t 1.37550117647059 -s 0 -d 2 -p tcp -e 1500 -c 1 -i 38 -a 1 -x {0.0 3.0 22 ------N null}
+ -t 1.37550117647059 -s 0 -d 2 -p tcp -e 1500 -c 1 -i 39 -a 1 -x {0.0 3.0 23 ------N null}
r -t 1.37632470588235 -s 0 -d 2 -p tcp -e 1500 -c 1 -i 30 -a 1 -x {0.0 3.0 17 ------N null}
+ -t 1.37632470588235 -s 2 -d 3 -p tcp -e 1500 -c 1 -i 30 -a 1 -x {0.0 3.0 17 ------N null}
- -t 1.37738352941176 -s 2 -d 3 -p tcp -e 1500 -c 1 -i 30 -a 1 -x {0.0 3.0 17 ------N null}
h -t 1.37738352941176 -s 2 -d 3 -p tcp -e 1500 -c 1 -i 30 -a 1 -x {0.0 3.0 -1 ------N null}
- -t 1.37832470588235 -s 0 -d 2 -p tcp -e 1500 -c 1 -i 35 -a 1 -x {0.0 3.0 20 ------N null}
h -t 1.37832470588235 -s 0 -d 2 -p tcp -e 1500 -c 1 -i 35 -a 1 -x {0.0 3.0 -1 ------N null}
r -t 1.37945882352941 -s 3 -d 2 -p ack -e 40 -c 1 -i 31 -a 1 -x {3.0 0.0 13 ------- null}
+ -t 1.37945882352941 -s 2 -d 0 -p ack -e 40 -c 1 -i 31 -a 1 -x {3.0 0.0 13 ------- null}
- -t 1.37945882352941 -s 2 -d 0 -p ack -e 40 -c 1 -i 31 -a 1 -x {3.0 0.0 13 ------- null}
h -t 1.37945882352941 -s 2 -d 0 -p ack -e 40 -c 1 -i 31 -a 1 -x {3.0 0.0 -1 ------- null}
r -t 1.38232470588235 -s 0 -d 2 -p tcp -e 1500 -c 1 -i 32 -a 1 -x {0.0 3.0 18 ------N null}
+ -t 1.38232470588235 -s 2 -d 3 -p tcp -e 1500 -c 1 -i 32 -a 1 -x {0.0 3.0 18 ------N null}
r -t 1.38256 -s 2 -d 0 -p ack -e 40 -c 1 -i 28 -a 1 -x {3.0 0.0 12 ------- null}
+ -t 1.38256 -s 0 -d 2 -p tcp -e 1500 -c 1 -i 40 -a 1 -x {0.0 3.0 24 ------N null}
+ -t 1.38256 -s 0 -d 2 -p tcp -e 1500 -c 1 -i 41 -a 1 -x {0.0 3.0 25 ------N null}
- -t 1.38432470588235 -s 0 -d 2 -p tcp -e 1500 -c 1 -i 36 -a 1 -x {0.0 3.0 21 ------N null}
h -t 1.38432470588235 -s 0 -d 2 -p tcp -e 1500 -c 1 -i 36 -a 1 -x {0.0 3.0 -1 ------N null}
- -t 1.38444235294118 -s 2 -d 3 -p tcp -e 1500 -c 1 -i 32 -a 1 -x {0.0 3.0 18 ------N null}
h -t 1.38444235294118 -s 2 -d 3 -p tcp -e 1500 -c 1 -i 32 -a 1 -x {0.0 3.0 -1 ------N null}
r -t 1.38651764705882 -s 3 -d 2 -p ack -e 40 -c 1 -i 34 -a 1 -x {3.0 0.0 14 ------- null}
+ -t 1.38651764705882 -s 2 -d 0 -p ack -e 40 -c 1 -i 34 -a 1 -x {3.0 0.0 14 ------- null}
- -t 1.38651764705882 -s 2 -d 0 -p ack -e 40 -c 1 -i 34 -a 1 -x {3.0 0.0 14 ------- null}
h -t 1.38651764705882 -s 2 -d 0 -p ack -e 40 -c 1 -i 34 -a 1 -x {3.0 0.0 -1 ------- null}
r -t 1.38832470588235 -s 0 -d 2 -p tcp -e 1500 -c 1 -i 33 -a 1 -x {0.0 3.0 19 ------N null}
+ -t 1.38832470588235 -s 2 -d 3 -p tcp -e 1500 -c 1 -i 33 -a 1 -x {0.0 3.0 19 ------N null}
r -t 1.38961882352941 -s 2 -d 0 -p ack -e 40 -c 1 -i 31 -a 1 -x {3.0 0.0 13 ------- null}
+ -t 1.38961882352941 -s 0 -d 2 -p tcp -e 1500 -c 1 -i 42 -a 1 -x {0.0 3.0 26 ------N null}
+ -t 1.38961882352941 -s 0 -d 2 -p tcp -e 1500 -c 1 -i 43 -a 1 -x {0.0 3.0 27 ------N null}
- -t 1.39032470588235 -s 0 -d 2 -p tcp -e 1500 -c 1 -i 38 -a 1 -x {0.0 3.0 22 ------N null}
h -t 1.39032470588235 -s 0 -d 2 -p tcp -e 1500 -c 1 -i 38 -a 1 -x {0.0 3.0 -1 ------N null}
- -t 1.39150117647059 -s 2 -d 3 -p tcp -e 1500 -c 1 -i 33 -a 1 -x {0.0 3.0 19 ------N null}
h -t 1.39150117647059 -s 2 -d 3 -p tcp -e 1500 -c 1 -i 33 -a 1 -x {0.0 3.0 -1 ------N null}
r -t 1.39357647058824 -s 3 -d 2 -p ack -e 40 -c 1 -i 37 -a 1 -x {3.0 0.0 15 ------- null}
+ -t 1.39357647058824 -s 2 -d 0 -p ack -e 40 -c 1 -i 37 -a 1 -x {3.0 0.0 15 ------- null}
- -t 1.39357647058824 -s 2 -d 0 -p ack -e 40 -c 1 -i 37 -a 1 -x {3.0 0.0 15 ------- null}
h -t 1.39357647058824 -s 2 -d 0 -p ack -e 40 -c 1 -i 37 -a 1 -x {3.0 0.0 -1 ------- null}
r -t 1.39432470588235 -s 0 -d 2 -p tcp -e 1500 -c 1 -i 35 -a 1 -x {0.0 3.0 20 ------N null}
+ -t 1.39432470588235 -s 2 -d 3 -p tcp -e 1500 -c 1 -i 35 -a 1 -x {0.0 3.0 20 ------N null}
- -t 1.39632470588235 -s 0 -d 2 -p tcp -e 1500 -c 1 -i 39 -a 1 -x {0.0 3.0 23 ------N null}
h -t 1.39632470588235 -s 0 -d 2 -p tcp -e 1500 -c 1 -i 39 -a 1 -x {0.0 3.0 -1 ------N null}
r -t 1.39667764705882 -s 2 -d 0 -p ack -e 40 -c 1 -i 34 -a 1 -x {3.0 0.0 14 ------- null}
+ -t 1.39667764705882 -s 0 -d 2 -p tcp -e 1500 -c 1 -i 44 -a 1 -x {0.0 3.0 28 ------N null}
+ -t 1.39667764705882 -s 0 -d 2 -p tcp -e 1500 -c 1 -i 45 -a 1 -x {0.0 3.0 29 ------N null}
r -t 1.39738352941176 -s 2 -d 3 -p tcp -e 1500 -c 1 -i 29 -a 1 -x {0.0 3.0 16 ------N null}
+ -t 1.39738352941176 -s 3 -d 2 -p ack -e 40 -c 1 -i 46 -a 1 -x {3.0 0.0 16 ------- null}
- -t 1.39738352941176 -s 3 -d 2 -p ack -e 40 -c 1 -i 46 -a 1 -x {3.0 0.0 16 ------- null}
h -t 1.39738352941176 -s 3 -d 2 -p ack -e 40 -c 1 -i 46 -a 1 -x {3.0 0.0 -1 ------- null}
- -t 1.39856 -s 2 -d 3 -p tcp -e 1500 -c 1 -i 35 -a 1 -x {0.0 3.0 20 ------N null}
h -t 1.39856 -s 2 -d 3 -p tcp -e 1500 -c 1 -i 35 -a 1 -x {0.0 3.0 -1 ------N null}
r -t 1.40032470588235 -s 0 -d 2 -p tcp -e 1500 -c 1 -i 36 -a 1 -x {0.0 3.0 21 ------N null}
+ -t 1.40032470588235 -s 2 -d 3 -p tcp -e 1500 -c 1 -i 36 -a 1 -x {0.0 3.0 21 ------N null}
- -t 1.40232470588235 -s 0 -d 2 -p tcp -e 1500 -c 1 -i 40 -a 1 -x {0.0 3.0 24 ------N null}
h -t 1.40232470588235 -s 0 -d 2 -p tcp -e 1500 -c 1 -i 40 -a 1 -x {0.0 3.0 -1 ------N null}
r -t 1.40373647058824 -s 2 -d 0 -p ack -e 40 -c 1 -i 37 -a 1 -x {3.0 0.0 15 ------- null}
+ -t 1.40373647058824 -s 0 -d 2 -p tcp -e 1500 -c 1 -i 47 -a 1 -x {0.0 3.0 30 ------N null}
+ -t 1.40373647058824 -s 0 -d 2 -p tcp -e 1500 -c 1 -i 48 -a 1 -x {0.0 3.0 31 ------N null}
r -t 1.40444235294118 -s 2 -d 3 -p tcp -e 1500 -c 1 -i 30 -a 1 -x {0.0 3.0 17 ------N null}
+ -t 1.40444235294118 -s 3 -d 2 -p ack -e 40 -c 1 -i 49 -a 1 -x {3.0 0.0 17 ------- null}
- -t 1.40444235294118 -s 3 -d 2 -p ack -e 40 -c 1 -i 49 -a 1 -x {3.0 0.0 17 ------- null}
h -t 1.40444235294118 -s 3 -d 2 -p ack -e 40 -c 1 -i 49 -a 1 -x {3.0 0.0 -1 ------- null}
- -t 1.40561882352941 -s 2 -d 3 -p tcp -e 1500 -c 1 -i 36 -a 1 -x {0.0 3.0 21 ------N null}
h -t 1.40561882352941 -s 2 -d 3 -p tcp -e 1500 -c 1 -i 36 -a 1 -x {0.0 3.0 -1 ------N null}
r -t 1.40632470588235 -s 0 -d 2 -p tcp -e 1500 -c 1 -i 38 -a 1 -x {0.0 3.0 22 ------N null}
+ -t 1.40632470588235 -s 2 -d 3 -p tcp -e 1500 -c 1 -i 38 -a 1 -x {0.0 3.0 22 ------N null}
- -t 1.40832470588235 -s 0 -d 2 -p tcp -e 1500 -c 1 -i 41 -a 1 -x {0.0 3.0 25 ------N null}
h -t 1.40832470588235 -s 0 -d 2 -p tcp -e 1500 -c 1 -i 41 -a 1 -x {0.0 3.0 -1 ------N null}