V -t * -v 1.0a5 -a 0
A -t * -n 1 -p 0 -o 0x7fffffff -c 30 -a 1
A -t * -h 1 -m 1073741823 -s 0
c -t * -i 1 -n Blue
c -t * -i 2 -n Red
n -t * -a 0 -s 0 -S UP -v circle -c black -i black
n -t * -a 1 -s 1 -S UP -v circle -c black -i black
n -t * -a 2 -s 2 -S UP -v circle -c black -i black
n -t * -a 3 -s 3 -S UP -v circle -c black -i black
l -t * -s 0 -d 2 -S UP -r 2000000 -D 0.01 -c black -o right-down
l -t * -s 1 -d 2 -S UP -r 2000000 -D 0.01 -c black -o right-up
l -t * -s 2 -d 3 -S UP -r 1700000 -D 0.02 -c black -o right
q -t * -s 3 -d 2 -a 0.5
q -t * -s 2 -d 3 -a 0.5
+ -t 1 -s 0 -d 2 -p tcp -e 40 -c 1 -i 0 -a 1 -x {0.0 3.0 0 ------- null}
- -t 1 -s 0 -d 2 -p tcp -e 40 -c 1 -i 0 -a 1 -x {0.0 3.0 0 ------- null}
h -t 1 -s 0 -d 2 -p tcp -e 40 -c 1 -i 0 -a 1 -x {0.0 3.0 -1 ------- null}
+ -t 1 -s 0 -d 2 -p tcp -e 1040 -c 1 -i 1 -a 1 -x {0.0 3.0 1 ------- null}
+ -t 1 -s 0 -d 2 -p tcp -e 1040 -c 1 -i 2 -a 1 -x {0.0 3.0 2 ------- null}
+ -t 1 -s 0 -d 2 -p tcp -e 1040 -c 1 -i 3 -a 1 -x {0.0 3.0 3 ------- null}
+ -t 1 -s 0 -d 2 -p tcp -e 1040 -c 1 -i 4 -a 1 -x {0.0 3.0 4 ------- null}
+ -t 1 -s 0 -d 2 -p tcp -e 1040 -c 1 -i 5 -a 1 -x {0.0 3.0 5 ------- null}
+ -t 1 -s 0 -d 2 -p tcp -e 1040 -c 1 -i 6 -a 1 -x {0.0 3.0 6 ------- null}
+ -t 1 -s 0 -d 2 -p tcp -e 1040 -c 1 -i 7 -a 1 -x {0.0 3.0 7 ------- null}
+ -t 1 -s 0 -d 2 -p tcp -e 1040 -c 1 -i 8 -a 1 -x {0.0 3.0 8 ------- null}
+ -t 1 -s 0 -d 2 -p tcp -e 1040 -c 1 -i 9 -a 1 -x {0.0 3.0 9 ------- null}
+ -t 1 -s 0 -d 2 -p tcp -e 1040 -c 1 -i 10 -a 1 -x {0.0 3.0 10 ------- null}
+ -t 1 -s 0 -d 2 -p tcp -e 1040 -c 1 -i 11 -a 1 -x {0.0 3.0 11 ------- null}
+ -t 1 -s 0 -d 2 -p tcp -e 1040 -c 1 -i 12 -a 1 -x {0.0 3.0 12 ------- null}
+ -t 1 -s 0 -d 2 -p tcp -e 1040 -c 1 -i 13 -a 1 -x {0.0 3.0 13 ------- null}
+ -t 1 -s 0 -d 2 -p tcp -e 1040 -c 1 -i 14 -a 1 -x {0.0 3.0 14 ------- null}
+ -t 1 -s 0 -d 2 -p tcp -e 1040 -c 1 -i 15 -a 1 -x {0.0 3.0 15 ------- null}
+ -t 1 -s 0 -d 2 -p tcp -e 1040 -c 1 -i 16 -a 1 -x {0.0 3.0 16 ------- null}
+ -t 1 -s 0 -d 2 -p tcp -e 1040 -c 1 -i 17 -a 1 -x {0.0 3.0 17 ------- null}
+ -t 1 -s 0 -d 2 -p tcp -e 1040 -c 1 -i 18 -a 1 -x {0.0 3.0 18 ------- null}
+ -t 1 -s 0 -d 2 -p tcp -e 1040 -c 1 -i 19 -a 1 -x {0.0 3.0 19 ------- null}
- -t 1.00016 -s 0 -d 2 -p tcp -e 1040 -c 1 -i 1 -a 1 -x {0.0 3.0 1 ------- null}
h -t 1.00016 -s 0 -d 2 -p tcp -e 1040 -c 1 -i 1 -a 1 -x {0.0 3.0 -1 ------- null}
- -t 1.00432 -s 0 -d 2 -p tcp -e 1040 -c 1 -i 2 -a 1 -x {0.0 3.0 2 ------- null}
h -t 1.00432 -s 0 -d 2 -p tcp -e 1040 -c 1 -i 2 -a 1 -x {0.0 3.0 -1 ------- null}
- -t 1.00848 -s 0 -d 2 -p tcp -e 1040 -c 1 -i 3 -a 1 -x {0.0 3.0 3 ------- null}
h -t 1.00848 -s 0 -d 2 -p tcp -e 1040 -c 1 -i 3 -a 1 -x {0.0 3.0 -1 ------- null}
r -t 1.01016 -s 0 -d 2 -p tcp -e 40 -c 1 -i 0 -a 1 -x {0.0 3.0 0 ------- null}
+ -t 1.01016 -s 2 -d 3 -p tcp -e 40 -c 1 -i 0 -a 1 -x {0.0 3.0 0 ------- null}
- -t 1.01016 -s 2 -d 3 -p tcp -e 40 -c 1 -i 0 -a 1 -x {0.0 3.0 0 ------- null}
h -t 1.01016 -s 2 -d 3 -p tcp -e 40 -c 1 -i 0 -a 1 -x {0.0 3.0 -1 ------- null}
- -t 1.01264 -s 0 -d 2 -p tcp -e 1040 -c 1 -i 4 -a 1 -x {0.0 3.0 4 ------- null}
h -t 1.01264 -s 0 -d 2 -p tcp -e 1040 -c 1 -i 4 -a 1 -x {0.0 3.0 -1 ------- null}
r -t 1.01432 -s 0 -d 2 -p tcp -e 1040 -c 1 -i 1 -a 1 -x {0.0 3.0 1 ------- null}
+ -t 1.01432 -s 2 -d 3 -p tcp -e 1040 -c 1 -i 1 -a 1 -x {0.0 3.0 1 ------- null}
- -t 1.01432 -s 2 -d 3 -p tcp -e 1040 -c 1 -i 1 -a 1 -x {0.0 3.0 1 ------- null}
h -t 1.01432 -s 2 -d 3 -p tcp -e 1040 -c 1 -i 1 -a 1 -x {0.0 3.0 -1 ------- null}
- -t 1.0168 -s 0 -d 2 -p tcp -e 1040 -c 1 -i 5 -a 1 -x {0.0 3.0 5 ------- null}
h -t 1.0168 -s 0 -d 2 -p tcp -e 1040 -c 1 -i 5 -a 1 -x {0.0 3.0 -1 ------- null}
r -t 1.01848 -s 0 -d 2 -p tcp -e 1040 -c 1 -i 2 -a 1 -x {0.0 3.0 2 ------- null}
+ -t 1.01848 -s 2 -d 3 -p tcp -e 1040 -c 1 -i 2 -a 1 -x {0.0 3.0 2 ------- null}
- -t 1.01921411764706 -s 2 -d 3 -p tcp -e 1040 -c 1 -i 2 -a 1 -x {0.0 3.0 2 ------- null}
h -t 1.01921411764706 -s 2 -d 3 -p tcp -e 1040 -c 1 -i 2 -a 1 -x {0.0 3.0 -1 ------- null}
- -t 1.02096 -s 0 -d 2 -p tcp -e 1040 -c 1 -i 6 -a 1 -x {0.0 3.0 6 ------- null}
h -t 1.02096 -s 0 -d 2 -p tcp -e 1040 -c 1 -i 6 -a 1 -x {0.0 3.0 -1 ------- null}
r -t 1.02264 -s 0 -d 2 -p tcp -e 1040 -c 1 -i 3 -a 1 -x {0.0 3.0 3 ------- null}
+ -t 1.02264 -s 2 -d 3 -p tcp -e 1040 -c 1 -i 3 -a 1 -x {0.0 3.0 3 ------- null}
- -t 1.02410823529412 -s 2 -d 3 -p tcp -e 1040 -c 1 -i 3 -a 1 -x {0.0 3.0 3 ------- null}
h -t 1.02410823529412 -s 2 -d 3 -p tcp -e 1040 -c 1 -i 3 -a 1 -x {0.0 3.0 -1 ------- null}
- -t 1.02512 -s 0 -d 2 -p tcp -e 1040 -c 1 -i 7 -a 1 -x {0.0 3.0 7 ------- null}
h -t 1.02512 -s 0 -d 2 -p tcp -e 1040 -c 1 -i 7 -a 1 -x {0.0 3.0 -1 ------- null}
r -t 1.0268 -s 0 -d 2 -p tcp -e 1040 -c 1 -i 4 -a 1 -x {0.0 3.0 4 ------- null}
+ -t 1.0268 -s 2 -d 3 -p tcp -e 1040 -c 1 -i 4 -a 1 -x {0.0 3.0 4 ------- null}
- -t 1.02900235294118 -s 2 -d 3 -p tcp -e 1040 -c 1 -i 4 -a 1 -x {0.0 3.0 4 ------- null}
h -t 1.02900235294118 -s 2 -d 3 -p tcp -e 1040 -c 1 -i 4 -a 1 -x {0.0 3.0 -1 ------- null}
- -t 1.02928 -s 0 -d 2 -p tcp -e 1040 -c 1 -i 8 -a 1 -x {0.0 3.0 8 ------- null}
h -t 1.02928 -s 0 -d 2 -p tcp -e 1040 -c 1 -i 8 -a 1 -x {0.0 3.0 -1 ------- null}
r -t 1.03034823529412 -s 2 -d 3 -p tcp -e 40 -c 1 -i 0 -a 1 -x {0.0 3.0 0 ------- null}
+ -t 1.03034823529412 -s 3 -d 2 -p ack -e 40 -c 1 -i 20 -a 1 -x {3.0 0.0 0 ------- null}
- -t 1.03034823529412 -s 3 -d 2 -p ack -e 40 -c 1 -i 20 -a 1 -x {3.0 0.0 0 ------- null}
h -t 1.03034823529412 -s 3 -d 2 -p ack -e 40 -c 1 -i 20 -a 1 -x {3.0 0.0 -1 ------- null}
r -t 1.03096 -s 0 -d 2 -p tcp -e 1040 -c 1 -i 5 -a 1 -x {0.0 3.0 5 ------- null}
+ -t 1.03096 -s 2 -d 3 -p tcp -e 1040 -c 1 -i 5 -a 1 -x {0.0 3.0 5 ------- null}
- -t 1.03344 -s 0 -d 2 -p tcp -e 1040 -c 1 -i 9 -a 1 -x {0.0 3.0 9 ------- null}
h -t 1.03344 -s 0 -d 2 -p tcp -e 1040 -c 1 -i 9 -a 1 -x {0.0 3.0 -1 ------- null}
- -t 1.03389647058823 -s 2 -d 3 -p tcp -e 1040 -c 1 -i 5 -a 1 -x {0.0 3.0 5 ------- null}
h -t 1.03389647058823 -s 2 -d 3 -p tcp -e 1040 -c 1 -i 5 -a 1 -x {0.0 3.0 -1 ------- null}
r -t 1.03512 -s 0 -d 2 -p tcp -e 1040 -c 1 -i 6 -a 1 -x {0.0 3.0 6 ------- null}
+ -t 1.03512 -s 2 -d 3 -p tcp -e 1040 -c 1 -i 6 -a 1 -x {0.0 3.0 6 ------- null}
- -t 1.0376 -s 0 -d 2 -p tcp -e 1040 -c 1 -i 10 -a 1 -x {0.0 3.0 10 ------- null}
h -t 1.0376 -s 0 -d 2 -p tcp -e 1040 -c 1 -i 10 -a 1 -x {0.0 3.0 -1 ------- null}
- -t 1.03879058823529 -s 2 -d 3 -p tcp -e 1040 -c 1 -i 6 -a 1 -x {0.0 3.0 6 ------- null}
h -t 1.03879058823529 -s 2 -d 3 -p tcp -e 1040 -c 1 -i 6 -a 1 -x {0.0 3.0 -1 ------- null}
r -t 1.03921411764706 -s 2 -d 3 -p tcp -e 1040 -c 1 -i 1 -a 1 -x {0.0 3.0 1 ------- null}
+ -t 1.03921411764706 -s 3 -d 2 -p ack -e 40 -c 1 -i 21 -a 1 -x {3.0 0.0 1 ------- null}
- -t 1.03921411764706 -s 3 -d 2 -p ack -e 40 -c 1 -i 21 -a 1 -x {3.0 0.0 1 ------- null}
h -t 1.03921411764706 -s 3 -d 2 -p ack -e 40 -c 1 -i 21 -a 1 -x {3.0 0.0 -1 ------- null}
r -t 1.03928 -s 0 -d 2 -p tcp -e 1040 -c 1 -i 7 -a 1 -x {0.0 3.0 7 ------- null}
+ -t 1.03928 -s 2 -d 3 -p tcp -e 1040 -c 1 -i 7 -a 1 -x {0.0 3.0 7 ------- null}
- -t 1.04176 -s 0 -d 2 -p tcp -e 1040 -c 1 -i 11 -a 1 -x {0.0 3.0 11 ------- null}
h -t 1.04176 -s 0 -d 2 -p tcp -e 1040 -c 1 -i 11 -a 1 -x {0.0 3.0 -1 ------- null}
r -t 1.04344 -s 0 -d 2 -p tcp -e 1040 -c 1 -i 8 -a 1 -x {0.0 3.0 8 ------- null}
+ -t 1.04344 -s 2 -d 3 -p tcp -e 1040 -c 1 -i 8 -a 1 -x {0.0 3.0 8 ------- null}
- -t 1.04368470588235 -s 2 -d 3 -p tcp -e 1040 -c 1 -i 7 -a 1 -x {0.0 3.0 7 ------- null}
h -t 1.04368470588235 -s 2 -d 3 -p tcp -e 1040 -c 1 -i 7 -a 1 -x {0.0 3.0 -1 ------- null}
r -t 1.04410823529412 -s 2 -d 3 -p tcp -e 1040 -c 1 -i 2 -a 1 -x {0.0 3.0 2 ------- null}
+ -t 1.04410823529412 -s 3 -d 2 -p ack -e 40 -c 1 -i 22 -a 1 -x {3.0 0.0 2 ------- null}
- -t 1.04410823529412 -s 3 -d 2 -p ack -e 40 -c 1 -i 22 -a 1 -x {3.0 0.0 2 ------- null}
h -t 1.04410823529412 -s 3 -d 2 -p ack -e 40 -c 1 -i 22 -a 1 -x {3.0 0.0 -1 ------- null}
- -t 1.04592 -s 0 -d 2 -p tcp -e 1040 -c 1 -i 12 -a 1 -x {0.0 3.0 12 ------- null}
h -t 1.04592 -s 0 -d 2 -p tcp -e 1040 -c 1 -i 12 -a 1 -x {0.0 3.0 -1 ------- null}
r -t 1.0476 -s 0 -d 2 -p tcp -e 1040 -c 1 -i 9 -a 1 -x {0.0 3.0 9 ------- null}
+ -t 1.0476 -s 2 -d 3 -p tcp -e 1040 -c 1 -i 9 -a 1 -x {0.0 3.0 9 ------- null}
- -t 1.04857882352941 -s 2 -d 3 -p tcp -e 1040 -c 1 -i 8 -a 1 -x {0.0 3.0 8 ------- null}
h -t 1.04857882352941 -s 2 -d 3 -p tcp -e 1040 -c 1 -i 8 -a 1 -x {0.0 3.0 -1 ------- null}
r -t 1.04900235294118 -s 2 -d 3 -p tcp -e 1040 -c 1 -i 3 -a 1 -x {0.0 3.0 3 ------- null}
+ -t 1.04900235294118 -s 3 -d 2 -p ack -e 40 -c 1 -i 23 -a 1 -x {3.0 0.0 3 ------- null}
- -t 1.04900235294118 -s 3 -d 2 -p ack -e 40 -c 1 -i 23 -a 1 -x {3.0 0.0 3 ------- null}
h -t 1.04900235294118 -s 3 -d 2 -p ack -e 40 -c 1 -i 23 -a 1 -x {3.0 0.0 -1 ------- null}
- -t 1.05008 -s 0 -d 2 -p tcp -e 1040 -c 1 -i 13 -a 1 -x {0.0 3.0 13 ------- null}
h -t 1.05008 -s 0 -d 2 -p tcp -e 1040 -c 1 -i 13 -a 1 -x {0.0 3.0 -1 ------- null}
r -t 1.05053647058824 -s 3 -d 2 -p ack -e 40 -c 1 -i 20 -a 1 -x {3.0 0.0 0 ------- null}
+ -t 1.05053647058824 -s 2 -d 0 -p ack -e 40 -c 1 -i 20 -a 1 -x {3.0 0.0 0 ------- null}
- -t 1.05053647058824 -s 2 -d 0 -p ack -e 40 -c 1 -i 20 -a 1 -x {3.0 0.0 0 ------- null}
h -t 1.05053647058824 -s 2 -d 0 -p ack -e 40 -c 1 -i 20 -a 1 -x {3.0 0.0 -1 ------- null}
r -t 1.05176 -s 0 -d 2 -p tcp -e 1040 -c 1 -i 10 -a 1 -x {0.0 3.0 10 ------- null}
+ -t 1.05176 -s 2 -d 3 -p tcp -e 1040 -c 1 -i 10 -a 1 -x {0.0 3.0 10 ------- null}
- -t 1.05347294117647 -s 2 -d 3 -p tcp -e 1040 -c 1 -i 9 -a 1 -x {0.0 3.0 9 ------- null}
h -t 1.05347294117647 -s 2 -d 3 -p tcp -e 1040 -c 1 -i 9 -a 1 -x {0.0 3.0 -1 ------- null}
r -t 1.05389647058823 -s 2 -d 3 -p tcp -e 1040 -c 1 -i 4 -a 1 -x {0.0 3.0 4 ------- null}
+ -t 1.05389647058823 -s 3 -d 2 -p ack -e 40 -c 1 -i 24 -a 1 -x {3.0 0.0 4 ------- null}
- -t 1.05389647058823 -s 3 -d 2 -p ack -e 40 -c 1 -i 24 -a 1 -x {3.0 0.0 4 ------- null}
h -t 1.05389647058823 -s 3 -d 2 -p ack -e 40 -c 1 -i 24 -a 1 -x {3.0 0.0 -1 ------- null}
- -t 1.05424 -s 0 -d 2 -p tcp -e 1040 -c 1 -i 14 -a 1 -x {0.0 3.0 14 ------- null}
h -t 1.05424 -s 0 -d 2 -p tcp -e 1040 -c 1 -i 14 -a 1 -x {0.0 3.0 -1 ------- null}
r -t 1.05592 -s 0 -d 2 -p tcp -e 1040 -c 1 -i 11 -a 1 -x {0.0 3.0 11 ------- null}
+ -t 1.05592 -s 2 -d 3 -p tcp -e 1040 -c 1 -i 11 -a 1 -x {0.0 3.0 11 ------- null}
- -t 1.05836705882353 -s 2 -d 3 -p tcp -e 1040 -c 1 -i 10 -a 1 -x {0.0 3.0 10 ------- null}
h -t 1.05836705882353 -s 2 -d 3 -p tcp -e 1040 -c 1 -i 10 -a 1 -x {0.0 3.0 -1 ------- null}
- -t 1.0584 -s 0 -d 2 -p tcp -e 1040 -c 1 -i 15 -a 1 -x {0.0 3.0 15 ------- null}
h -t 1.0584 -s 0 -d 2 -p tcp -e 1040 -c 1 -i 15 -a 1 -x {0.0 3.0 -1 ------- null}
r -t 1.05879058823529 -s 2 -d 3 -p tcp -e 1040 -c 1 -i 5 -a 1 -x {0.0 3.0 5 ------- null}
+ -t 1.05879058823529 -s 3 -d 2 -p ack -e 40 -c 1 -i 25 -a 1 -x {3.0 0.0 5 ------- null}
- -t 1.05879058823529 -s 3 -d 2 -p ack -e 40 -c 1 -i 25 -a 1 -x {3.0 0.0 5 ------- null}
h -t 1.05879058823529 -s 3 -d 2 -p ack -e 40 -c 1 -i 25 -a 1 -x {3.0 0.0 -1 ------- null}
r -t 1.05940235294118 -s 3 -d 2 -p ack -e 40 -c 1 -i 21 -a 1 -x {3.0 0.0 1 ------- null}
+ -t 1.05940235294118 -s 2 -d 0 -p ack -e 40 -c 1 -i 21 -a 1 -x {3.0 0.0 1 ------- null}
- -t 1.05940235294118 -s 2 -d 0 -p ack -e 40 -c 1 -i 21 -a 1 -x {3.0 0.0 1 ------- null}
h -t 1.05940235294118 -s 2 -d 0 -p ack -e 40 -c 1 -i 21 -a 1 -x {3.0 0.0 -1 ------- null}
r -t 1.06008 -s 0 -d 2 -p tcp -e 1040 -c 1 -i 12 -a 1 -x {0.0 3.0 12 ------- null}
+ -t 1.06008 -s 2 -d 3 -p tcp -e 1040 -c 1 -i 12 -a 1 -x {0.0 3.0 12 ------- null}
r -t 1.06069647058824 -s 2 -d 0 -p ack -e 40 -c 1 -i 20 -a 1 -x {3.0 0.0 0 ------- null}
+ -t 1.06069647058824 -s 0 -d 2 -p tcp -e 1040 -c 1 -i 26 -a 1 -x {0.0 3.0 20 ------- null}
- -t 1.06256 -s 0 -d 2 -p tcp -e 1040 -c 1 -i 16 -a 1 -x {0.0 3.0 16 ------- null}
h -t 1.06256 -s 0 -d 2 -p tcp -e 1040 -c 1 -i 16 -a 1 -x {0.0 3.0 -1 ------- null}
- -t 1.06326117647059 -s 2 -d 3 -p tcp -e 1040 -c 1 -i 11 -a 1 -x {0.0 3.0 11 ------- null}
h -t 1.06326117647059 -s 2 -d 3 -p tcp -e 1040 -c 1 -i 11 -a 1 -x {0.0 3.0 -1 ------- null}
r -t 1.06368470588235 -s 2 -d 3 -p tcp -e 1040 -c 1 -i 6 -a 1 -x {0.0 3.0 6 ------- null}
+ -t 1.06368470588235 -s 3 -d 2 -p ack -e 40 -c 1 -i 27 -a 1 -x {3.0 0.0 6 ------- null}
- -t 1.06368470588235 -s 3 -d 2 -p ack -e 40 -c 1 -i 27 -a 1 -x {3.0 0.0 6 ------- null}
h -t 1.06368470588235 -s 3 -d 2 -p ack -e 40 -c 1 -i 27 -a 1 -x {3.0 0.0 -1 ------- null}
r -t 1.06424 -s 0 -d 2 -p tcp -e 1040 -c 1 -i 13 -a 1 -x {0.0 3.0 13 ------- null}
+ -t 1.06424 -s 2 -d 3 -p tcp -e 1040 -c 1 -i 13 -a 1 -x {0.0 3.0 13 ------- null}
r -t 1.06429647058823 -s 3 -d 2 -p ack -e 40 -c 1 -i 22 -a 1 -x {3.0 0.0 2 ------- null}
+ -t 1.06429647058823 -s 2 -d 0 -p ack -e 40 -c 1 -i 22 -a 1 -x {3.0 0.0 2 ------- null}
- -t 1.06429647058823 -s 2 -d 0 -p ack -e 40 -c 1 -i 22 -a 1 -x {3.0 0.0 2 ------- null}
h -t 1.06429647058823 -s 2 -d 0 -p ack -e 40 -c 1 -i 22 -a 1 -x {3.0 0.0 -1 ------- null}
- -t 1.06672 -s 0 -d 2 -p tcp -e 1040 -c 1 -i 17 -a 1 -x {0.0 3.0 17 ------- null}
h -t 1.06672 -s 0 -d 2 -p tcp -e 1040 -c 1 -i 17 -a 1 -x {0.0 3.0 -1 ------- null}
- -t 1.06815529411765 -s 2 -d 3 -p tcp -e 1040 -c 1 -i 12 -a 1 -x {0.0 3.0 12 ------- null}
h -t 1.06815529411765 -s 2 -d 3 -p tcp -e 1040 -c 1 -i 12 -a 1 -x {0.0 3.0 -1 ------- null}
r -t 1.0684 -s 0 -d 2 -p tcp -e 1040 -c 1 -i 14 -a 1 -x {0.0 3.0 14 ------- null}
+ -t 1.0684 -s 2 -d 3 -p tcp -e 1040 -c 1 -i 14 -a 1 -x {0.0 3.0 14 ------- null}
r -t 1.06857882352941 -s 2 -d 3 -p tcp -e 1040 -c 1 -i 7 -a 1 -x {0.0 3.0 7 ------- null}
+ -t 1.06857882352941 -s 3 -d 2 -p ack -e 40 -c 1 -i 28 -a 1 -x {3.0 0.0 7 ------- null}
- -t 1.06857882352941 -s 3 -d 2 -p ack -e 40 -c 1 -i 28 -a 1 -x {3.0 0.0 7 ------- null}
h -t 1.06857882352941 -s 3 -d 2 -p ack -e 40 -c 1 -i 28 -a 1 -x {3.0 0.0 -1 ------- null}
r -t 1.06919058823529 -s 3 -d 2 -p ack -e 40 -c 1 -i 23 -a 1 -x {3.0 0.0 3 ------- null}
+ -t 1.06919058823529 -s 2 -d 0 -p ack -e 40 -c 1 -i 23 -a 1 -x {3.0 0.0 3 ------- null}
- -t 1.06919058823529 -s 2 -d 0 -p ack -e 40 -c 1 -i 23 -a 1 -x {3.0 0.0 3 ------- null}
h -t 1.06919058823529 -s 2 -d 0 -p ack -e 40 -c 1 -i 23 -a 1 -x {3.0 0.0 -1 ------- null}
r -t 1.06956235294118 -s 2 -d 0 -p ack -e 40 -c 1 -i 21 -a 1 -x {3.0 0.0 1 ------- null}
+ -t 1.06956235294118 -s 0 -d 2 -p tcp -e 1040 -c 1 -i 29 -a 1 -x {0.0 3.0 21 ------- null}
- -t 1.07088 -s 0 -d 2 -p tcp -e 1040 -c 1 -i 18 -a 1 -x {0.0 3.0 18 ------- null}
h -t 1.07088 -s 0 -d 2 -p tcp -e 1040 -c 1 -i 18 -a 1 -x {0.0 3.0 -1 ------- null}
r -t 1.07256 -s 0 -d 2 -p tcp -e 1040 -c 1 -i 15 -a 1 -x {0.0 3.0 15 ------- null}
+ -t 1.07256 -s 2 -d 3 -p tcp -e 1040 -c 1 -i 15 -a 1 -x {0.0 3.0 15 ------- null}
- -t 1.0730494117647 -s 2 -d 3 -p tcp -e 1040 -c 1 -i 13 -a 1 -x {0.0 3.0 13 ------- null}
h -t 1.0730494117647 -s 2 -d 3 -p tcp -e 1040 -c 1 -i 13 -a 1 -x {0.0 3.0 -1 ------- null}
r -t 1.07347294117647 -s 2 -d 3 -p tcp -e 1040 -c 1 -i 8 -a 1 -x {0.0 3.0 8 ------- null}
+ -t 1.07347294117647 -s 3 -d 2 -p ack -e 40 -c 1 -i 30 -a 1 -x {3.0 0.0 8 ------- null}
- -t 1.07347294117647 -s 3 -d 2 -p ack -e 40 -c 1 -i 30 -a 1 -x {3.0 0.0 8 ------- null}
h -t 1.07347294117647 -s 3 -d 2 -p ack -e 40 -c 1 -i 30 -a 1 -x {3.0 0.0 -1 ------- null}
r -t 1.07408470588235 -s 3 -d 2 -p ack -e 40 -c 1 -i 24 -a 1 -x {3.0 0.0 4 ------- null}
+ -t 1.07408470588235 -s 2 -d 0 -p ack -e 40 -c 1 -i 24 -a 1 -x {3.0 0.0 4 ------- null}
- -t 1.07408470588235 -s 2 -d 0 -p ack -e 40 -c 1 -i 24 -a 1 -x {3.0 0.0 4 ------- null}
h -t 1.07408470588235 -s 2 -d 0 -p ack -e 40 -c 1 -i 24 -a 1 -x {3.0 0.0 -1 ------- null}
r -t 1.07445647058823 -s 2 -d 0 -p ack -e 40 -c 1 -i 22 -a 1 -x {3.0 0.0 2 ------- null}
+ -t 1.07445647058823 -s 0 -d 2 -p tcp -e 1040 -c 1 -i 31 -a 1 -x {0.0 3.0 22 ------- null}
- -t 1.07504 -s 0 -d 2 -p tcp -e 1040 -c 1 -i 19 -a 1 -x {0.0 3.0 19 ------- null}
h -t 1.07504 -s 0 -d 2 -p tcp -e 1040 -c 1 -i 19 -a 1 -x {0.0 3.0 -1 ------- null}
r -t 1.07672 -s 0 -d 2 -p tcp -e 1040 -c 1 -i 16 -a 1 -x {0.0 3.0 16 ------- null}
+ -t 1.07672 -s 2 -d 3 -p tcp -e 1040 -c 1 -i 16 -a 1 -x {0.0 3.0 16 ------- null}
- -t 1.07794352941176 -s 2 -d 3 -p tcp -e 1040 -c 1 -i 14 -a 1 -x {0.0 3.0 14 ------- null}
h -t 1.07794352941176 -s 2 -d 3 -p tcp -e 1040 -c 1 -i 14 -a 1 -x {0.0 3.0 -1 ------- null}
r -t 1.07836705882353 -s 2 -d 3 -p tcp -e 1040 -c 1 -i 9 -a 1 -x {0.0 3.0 9 ------- null}
+ -t 1.07836705882353 -s 3 -d 2 -p ack -e 40 -c 1 -i 32 -a 1 -x {3.0 0.0 9 ------- null}
- -t 1.07836705882353 -s 3 -d 2 -p ack -e 40 -c 1 -i 32 -a 1 -x {3.0 0.0 9 ------- null}
h -t 1.07836705882353 -s 3 -d 2 -p ack -e 40 -c 1 -i 32 -a 1 -x {3.0 0.0 -1 ------- null}
r -t 1.07897882352941 -s 3 -d 2 -p ack -e 40 -c 1 -i 25 -a 1 -x {3.0 0.0 5 ------- null}
+ -t 1.07897882352941 -s 2 -d 0 -p ack -e 40 -c 1 -i 25 -a 1 -x {3.0 0.0 5 ------- null}
- -t 1.07897882352941 -s 2 -d 0 -p ack -e 40 -c 1 -i 25 -a 1 -x {3.0 0.0 5 ------- null}
h -t 1.07897882352941 -s 2 -d 0 -p ack -e 40 -c 1 -i 25 -a 1 -x {3.0 0.0 -1 ------- null}
- -t 1.0792 -s 0 -d 2 -p tcp -e 1040 -c 1 -i 26 -a 1 -x {0.0 3.0 20 ------- null}
h -t 1.0792 -s 0 -d 2 -p tcp -e 1040 -c 1 -i 26 -a 1 -x {0.0 3.0 -1 ------- null}
r -t 1.07935058823529 -s 2 -d 0 -p ack -e 40 -c 1 -i 23 -a 1 -x {3.0 0.0 3 ------- null}
+ -t 1.07935058823529 -s 0 -d 2 -p tcp -e 1040 -c 1 -i 33 -a 1 -x {0.0 3.0 23 ------- null}
r -t 1.08088 -s 0 -d 2 -p tcp -e 1040 -c 1 -i 17 -a 1 -x {0.0 3.0 17 ------- null}
+ -t 1.08088 -s 2 -d 3 -p tcp -e 1040 -c 1 -i 17 -a 1 -x {0.0 3.0 17 ------- null}
- -t 1.08283764705882 -s 2 -d 3 -p tcp -e 1040 -c 1 -i 15 -a 1 -x {0.0 3.0 15 ------- null}
h -t 1.08283764705882 -s 2 -d 3 -p tcp -e 1040 -c 1 -i 15 -a 1 -x {0.0 3.0 -1 ------- null}
r -t 1.08326117647059 -s 2 -d 3 -p tcp -e 1040 -c 1 -i 10 -a 1 -x {0.0 3.0 10 ------- null}
+ -t 1.08326117647059 -s 3 -d 2 -p ack -e 40 -c 1 -i 34 -a 1 -x {3.0 0.0 10 ------- null}
- -t 1.08326117647059 -s 3 -d 2 -p ack -e 40 -c 1 -i 34 -a 1 -x {3.0 0.0 10 ------- null}
h -t 1.08326117647059 -s 3 -d 2 -p ack -e 40 -c 1 -i 34 -a 1 -x {3.0 0.0 -1 ------- null}
- -t 1.08336 -s 0 -d 2 -p tcp -e 1040 -c 1 -i 29 -a 1 -x {0.0 3.0 21 ------- null}
h -t 1.08336 -s 0 -d 2 -p tcp -e 1040 -c 1 -i 29 -a 1 -x {0.0 3.0 -1 ------- null}
r -t 1.08387294117647 -s 3 -d 2 -p ack -e 40 -c 1 -i 27 -a 1 -x {3.0 0.0 6 ------- null}
+ -t 1.08387294117647 -s 2 -d 0 -p ack -e 40 -c 1 -i 27 -a 1 -x {3.0 0.0 6 ------- null}
- -t 1.08387294117647 -s 2 -d 0 -p ack -e 40 -c 1 -i 27 -a 1 -x {3.0 0.0 6 ------- null}
h -t 1.08387294117647 -s 2 -d 0 -p ack -e 40 -c 1 -i 27 -a 1 -x {3.0 0.0 -1 ------- null}
r -t 1.08424470588235 -s 2 -d 0 -p ack -e 40 -c 1 -i 24 -a 1 -x {3.0 0.0 4 ------- null}
+ -t 1.08424470588235 -s 0 -d 2 -p tcp -e 1040 -c 1 -i 35 -a 1 -x {0.0 3.0 24 ------- null}
r -t 1.08504 -s 0 -d 2 -p tcp -e 1040 -c 1 -i 18 -a 1 -x {0.0 3.0 18 ------- null}
+ -t 1.08504 -s 2 -d 3 -p tcp -e 1040 -c 1 -i 18 -a 1 -x {0.0 3.0 18 ------- null}
- -t 1.08752 -s 0 -d 2 -p tcp -e 1040 -c 1 -i 31 -a 1 -x {0.0 3.0 22 ------- null}
h -t 1.08752 -s 0 -d 2 -p tcp -e 1040 -c 1 -i 31 -a 1 -x {0.0 3.0 -1 ------- null}
- -t 1.08773176470588 -s 2 -d 3 -p tcp -e 1040 -c 1 -i 16 -a 1 -x {0.0 3.0 16 ------- null}
h -t 1.08773176470588 -s 2 -d 3 -p tcp -e 1040 -c 1 -i 16 -a 1 -x {0.0 3.0 -1 ------- null}
r -t 1.08815529411765 -s 2 -d 3 -p tcp -e 1040 -c 1 -i 11 -a 1 -x {0.0 3.0 11 ------- null}
+ -t 1.08815529411765 -s 3 -d 2 -p ack -e 40 -c 1 -i 36 -a 1 -x {3.0 0.0 11 ------- null}
- -t 1.08815529411765 -s 3 -d 2 -p ack -e 40 -c 1 -i 36 -a 1 -x {3.0 0.0 11 ------- null}
h -t 1.08815529411765 -s 3 -d 2 -p ack -e 40 -c 1 -i 36 -a 1 -x {3.0 0.0 -1 ------- null}
r -t 1.08876705882353 -s 3 -d 2 -p ack -e 40 -c 1 -i 28 -a 1 -x {3.0 0.0 7 ------- null}
+ -t 1.08876705882353 -s 2 -d 0 -p ack -e 40 -c 1 -i 28 -a 1 -x {3.0 0.0 7 ------- null}
- -t 1.08876705882353 -s 2 -d 0 -p ack -e 40 -c 1 -i 28 -a 1 -x {3.0 0.0 7 ------- null}
h -t 1.08876705882353 -s 2 -d 0 -p ack -e 40 -c 1 -i 28 -a 1 -x {3.0 0.0 -1 ------- null}
r -t 1.08913882352941 -s 2 -d 0 -p ack -e 40 -c 1 -i 25 -a 1 -x {3.0 0.0 5 ------- null}
+ -t 1.08913882352941 -s 0 -d 2 -p tcp -e 1040 -c 1 -i 37 -a 1 -x {0.0 3.0 25 ------- null}
r -t 1.0892 -s 0 -d 2 -p tcp -e 1040 -c 1 -i 19 -a 1 -x {0.0 3.0 19 ------- null}
+ -t 1.0892 -s 2 -d 3 -p tcp -e 1040 -c 1 -i 19 -a 1 -x {0.0 3.0 19 ------- null}
- -t 1.09168 -s 0 -d 2 -p tcp -e 1040 -c 1 -i 33 -a 1 -x {0.0 3.0 23 ------- null}
h -t 1.09168 -s 0 -d 2 -p tcp -e 1040 -c 1 -i 33 -a 1 -x {0.0 3.0 -1 ------- null}
- -t 1.09262588235294 -s 2 -d 3 -p tcp -e 1040 -c 1 -i 17 -a 1 -x {0.0 3.0 17 ------- null}
h -t 1.09262588235294 -s 2 -d 3 -p tcp -e 1040 -c 1 -i 17 -a 1 -x {0.0 3.0 -1 ------- null}
r -t 1.0930494117647 -s 2 -d 3 -p tcp -e 1040 -c 1 -i 12 -a 1 -x {0.0 3.0 12 ------- null}
+ -t 1.0930494117647 -s 3 -d 2 -p ack -e 40 -c 1 -i 38 -a 1 -x {3.0 0.0 12 ------- null}
- -t 1.0930494117647 -s 3 -d 2 -p ack -e 40 -c 1 -i 38 -a 1 -x {3.0 0.0 12 ------- null}
h -t 1.0930494117647 -s 3 -d 2 -p ack -e 40 -c 1 -i 38 -a 1 -x {3.0 0.0 -1 ------- null}
r -t 1.09336 -s 0 -d 2 -p tcp -e 1040 -c 1 -i 26 -a 1 -x {0.0 3.0 20 ------- null}
+ -t 1.09336 -s 2 -d 3 -p tcp -e 1040 -c 1 -i 26 -a 1 -x {0.0 3.0 20 ------- null}
r -t 1.09366117647059 -s 3 -d 2 -p ack -e 40 -c 1 -i 30 -a 1 -x {3.0 0.0 8 ------- null}
+ -t 1.09366117647059 -s 2 -d 0 -p ack -e 40 -c 1 -i 30 -a 1 -x {3.0 0.0 8 ------- null}
- -t 1.09366117647059 -s 2 -d 0 -p ack -e 40 -c 1 -i 30 -a 1 -x {3.0 0.0 8 ------- null}
h -t 1.09366117647059 -s 2 -d 0 -p ack -e 40 -c 1 -i 30 -a 1 -x {3.0 0.0 -1 ------- null}
r -t 1.09403294117647 -s 2 -d 0 -p ack -e 40 -c 1 -i 27 -a 1 -x {3.0 0.0 6 ------- null}
+ -t 1.09403294117647 -s 0 -d 2 -p tcp -e 1040 -c 1 -i 39 -a 1 -x {0.0 3.0 26 ------- null}
- -t 1.09584 -s 0 -d 2 -p tcp -e 1040 -c 1 -i 35 -a 1 -x {0.0 3.0 24 ------- null}
h -t 1.09584 -s 0 -d 2 -p tcp -e 1040 -c 1 -i 35 -a 1 -x {0.0 3.0 -1 ------- null}
- -t 1.09752 -s 2 -d 3 -p tcp -e 1040 -c 1 -i 18 -a 1 -x {0.0 3.0 18 ------- null}
h -t 1.09752 -s 2 -d 3 -p tcp -e 1040 -c 1 -i 18 -a 1 -x {0.0 3.0 -1 ------- null}
r -t 1.09752 -s 0 -d 2 -p tcp -e 1040 -c 1 -i 29 -a 1 -x {0.0 3.0 21 ------- null}
+ -t 1.09752 -s 2 -d 3 -p tcp -e 1040 -c 1 -i 29 -a 1 -x {0.0 3.0 21 ------- null}
r -t 1.09794352941176 -s 2 -d 3 -p tcp -e 1040 -c 1 -i 13 -a 1 -x {0.0 3.0 13 ------- null}
+ -t 1.09794352941176 -s 3 -d 2 -p ack -e 40 -c 1 -i 40 -a 1 -x {3.0 0.0 13 ------- null}
- -t 1.09794352941176 -s 3 -d 2 -p ack -e 40 -c 1 -i 40 -a 1 -x {3.0 0.0 13 ------- null}
h -t 1.09794352941176 -s 3 -d 2 -p ack -e 40 -c 1 -i 40 -a 1 -x {3.0 0.0 -1 ------- null}
r -t 1.09855529411765 -s 3 -d 2 -p ack -e 40 -c 1 -i 32 -a 1 -x {3.0 0.0 9 ------- null}
+ -t 1.09855529411765 -s 2 -d 0 -p ack -e 40 -c 1 -i 32 -a 1 -x {3.0 0.0 9 ------- null}
- -t 1.09855529411765 -s 2 -d 0 -p ack -e 40 -c 1 -i 32 -a 1 -x {3.0 0.0 9 ------- null}
h -t 1.09855529411765 -s 2 -d 0 -p ack -e 40 -c 1 -i 32 -a 1 -x {3.0 0.0 -1 ------- null}
r -t 1.09892705882353 -s 2 -d 0 -p ack -e 40 -c 1 -i 28 -a 1 -x {3.0 0.0 7 ------- null}
+ -t 1.09892705882353 -s 0 -d 2 -p tcp -e 1040 -c 1 -i 41 -a 1 -x {0.0 3.0 27 ------- null}
- -t 1.1 -s 0 -d 2 -p tcp -e 1040 -c 1 -i 37 -a 1 -x {0.0 3.0 25 ------- null}
h -t 1.1 -s 0 -d 2 -p tcp -e 1040 -c 1 -i 37 -a 1 -x {0.0 3.0 -1 ------- null}
r -t 1.10168 -s 0 -d 2 -p tcp -e 1040 -c 1 -i 31 -a 1 -x {0.0 3.0 22 ------- null}
+ -t 1.10168 -s 2 -d 3 -p tcp -e 1040 -c 1 -i 31 -a 1 -x {0.0 3.0 22 ------- null}
- -t 1.10241411764706 -s 2 -d 3 -p tcp -e 1040 -c 1 -i 19 -a 1 -x {0.0 3.0 19 ------- null}
h -t 1.10241411764706 -s 2 -d 3 -p tcp -e 1040 -c 1 -i 19 -a 1 -x {0.0 3.0 -1 ------- null}
r -t 1.10283764705882 -s 2 -d 3 -p tcp -e 1040 -c 1 -i 14 -a 1 -x {0.0 3.0 14 ------- null}
+ -t 1.10283764705882 -s 3 -d 2 -p ack -e 40 -c 1 -i 42 -a 1 -x {3.0 0.0 14 ------- null}
- -t 1.10283764705882 -s 3 -d 2 -p ack -e 40 -c 1 -i 42 -a 1 -x {3.0 0.0 14 ------- null}
h -t 1.10283764705882 -s 3 -d 2 -p ack -e 40 -c 1 -i 42 -a 1 -x {3.0 0.0 -1 ------- null}
r -t 1.1034494117647 -s 3 -d 2 -p ack -e 40 -c 1 -i 34 -a 1 -x {3.0 0.0 10 ------- null}
+ -t 1.1034494117647 -s 2 -d 0 -p ack -e 40 -c 1 -i 34 -a 1 -x {3.0 0.0 10 ------- null}
- -t 1.1034494117647 -s 2 -d 0 -p ack -e 40 -c 1 -i 34 -a 1 -x {3.0 0.0 10 ------- null}
h -t 1.1034494117647 -s 2 -d 0 -p ack -e 40 -c 1 -i 34 -a 1 -x {3.0 0.0 -1 ------- null}
r -t 1.10382117647059 -s 2 -d 0 -p ack -e 40 -c 1 -i 30 -a 1 -x {3.0 0.0 8 ------- null}
+ -t 1.10382117647059 -s 0 -d 2 -p tcp -e 1040 -c 1 -i 43 -a 1 -x {0.0 3.0 28 ------- null}
- -t 1.10416 -s 0 -d 2 -p tcp -e 1040 -c 1 -i 39 -a 1 -x {0.0 3.0 26 ------- null}
h -t 1.10416 -s 0 -d 2 -p tcp -e 1040 -c 1 -i 39 -a 1 -x {0.0 3.0 -1 ------- null}
r -t 1.10584 -s 0 -d 2 -p tcp -e 1040 -c 1 -i 33 -a 1 -x {0.0 3.0 23 ------- null}
+ -t 1.10584 -s 2 -d 3 -p tcp -e 1040 -c 1 -i 33 -a 1 -x {0.0 3.0 23 ------- null}
- -t 1.10730823529412 -s 2 -d 3 -p tcp -e 1040 -c 1 -i 26 -a 1 -x {0.0 3.0 20 ------- null}
h -t 1.10730823529412 -s 2 -d 3 -p tcp -e 1040 -c 1 -i 26 -a 1 -x {0.0 3.0 -1 ------- null}
r -t 1.10773176470588 -s 2 -d 3 -p tcp -e 1040 -c 1 -i 15 -a 1 -x {0.0 3.0 15 ------- null}
+ -t 1.10773176470588 -s 3 -d 2 -p ack -e 40 -c 1 -i 44 -a 1 -x {3.0 0.0 15 ------- null}
- -t 1.10773176470588 -s 3 -d 2 -p ack -e 40 -c 1 -i 44 -a 1 -x {3.0 0.0 15 ------- null}
h -t 1.10773176470588 -s 3 -d 2 -p ack -e 40 -c 1 -i 44 -a 1 -x {3.0 0.0 -1 ------- null}
- -t 1.10832 -s 0 -d 2 -p tcp -e 1040 -c 1 -i 41 -a 1 -x {0.0 3.0 27 ------- null}
h -t 1.10832 -s 0 -d 2 -p tcp -e 1040 -c 1 -i 41 -a 1 -x {0.0 3.0 -1 ------- null}
r -t 1.10834352941176 -s 3 -d 2 -p ack -e 40 -c 1 -i 36 -a 1 -x {3.0 0.0 11 ------- null}
+ -t 1.10834352941176 -s 2 -d 0 -p ack -e 40 -c 1 -i 36 -a 1 -x {3.0 0.0 11 ------- null}
- -t 1.10834352941176 -s 2 -d 0 -p ack -e 40 -c 1 -i 36 -a 1 -x {3.0 0.0 11 ------- null}
h -t 1.10834352941176 -s 2 -d 0 -p ack -e 40 -c 1 -i 36 -a 1 -x {3.0 0.0 -1 ------- null}
r -t 1.10871529411765 -s 2 -d 0 -p ack -e 40 -c 1 -i 32 -a 1 -x {3.0 0.0 9 ------- null}
+ -t 1.10871529411765 -s 0 -d 2 -p tcp -e 1040 -c 1 -i 45 -a 1 -x {0.0 3.0 29 ------- null}
r -t 1.11 -s 0 -d 2 -p tcp -e 1040 -c 1 -i 35 -a 1 -x {0.0 3.0 24 ------- null}
+ -t 1.11 -s 2 -d 3 -p tcp -e 1040 -c 1 -i 35 -a 1 -x {0.0 3.0 24 ------- null}
- -t 1.11220235294117 -s 2 -d 3 -p tcp -e 1040 -c 1 -i 29 -a 1 -x {0.0 3.0 21 ------- null}
h -t 1.11220235294117 -s 2 -d 3 -p tcp -e 1040 -c 1 -i 29 -a 1 -x {0.0 3.0 -1 ------- null}
- -t 1.11248 -s 0 -d 2 -p tcp -e 1040 -c 1 -i 43 -a 1 -x {0.0 3.0 28 ------- null}
h -t 1.11248 -s 0 -d 2 -p tcp -e 1040 -c 1 -i 43 -a 1 -x {0.0 3.0 -1 ------- null}
r -t 1.11262588235294 -s 2 -d 3 -p tcp -e 1040 -c 1 -i 16 -a 1 -x {0.0 3.0 16 ------- null}
+ -t 1.11262588235294 -s 3 -d 2 -p ack -e 40 -c 1 -i 46 -a 1 -x {3.0 0.0 16 ------- null}
- -t 1.11262588235294 -s 3 -d 2 -p ack -e 40 -c 1 -i 46 -a 1 -x {3.0 0.0 16 ------- null}
h -t 1.11262588235294 -s 3 -d 2 -p ack -e 40 -c 1 -i 46 -a 1 -x {3.0 0.0 -1 ------- null}
r -t 1.11323764705882 -s 3 -d 2 -p ack -e 40 -c 1 -i 38 -a 1 -x {3.0 0.0 12 ------- null}
+ -t 1.11323764705882 -s 2 -d 0 -p ack -e 40 -c 1 -i 38 -a 1 -x {3.0 0.0 12 ------- null}
- -t 1.11323764705882 -s 2 -d 0 -p ack -e 40 -c 1 -i 38 -a 1 -x {3.0 0.0 12 ------- null}
h -t 1.11323764705882 -s 2 -d 0 -p ack -e 40 -c 1 -i 38 -a 1 -x {3.0 0.0 -1 ------- null}
r -t 1.1136094117647 -s 2 -d 0 -p ack -e 40 -c 1 -i 34 -a 1 -x {3.0 0.0 10 ------- null}
+ -t 1.1136094117647 -s 0 -d 2 -p tcp -e 1040 -c 1 -i 47 -a 1 -x {0.0 3.0 30 ------- null}
r -t 1.11416 -s 0 -d 2 -p tcp -e 1040 -c 1 -i 37 -a 1 -x {0.0 3.0 25 ------- null}
+ -t 1.11416 -s 2 -d 3 -p tcp -e 1040 -c 1 -i 37 -a 1 -x {0.0 3.0 25 ------- null}
- -t 1.11664 -s 0 -d 2 -p tcp -e 1040 -c 1 -i 45 -a 1 -x {0.0 3.0 29 ------- null}
h -t 1.11664 -s 0 -d 2 -p tcp -e 1040 -c 1 -i 45 -a 1 -x {0.0 3.0 -1 ------- null}
- -t 1.11709647058823 -s 2 -d 3 -p tcp -e 1040 -c 1 -i 31 -a 1 -x {0.0 3.0 22 ------- null}
h -t 1.11709647058823 -s 2 -d 3 -p tcp -e 1040 -c 1 -i 31 -a 1 -x {0.0 3.0 -1 ------- null}
r -t 1.11752 -s 2 -d 3 -p tcp -e 1040 -c 1 -i 17 -a 1 -x {0.0 3.0 17 ------- null}
+ -t 1.11752 -s 3 -d 2 -p ack -e 40 -c 1 -i 48 -a 1 -x {3.0 0.0 17 ------- null}
- -t 1.11752 -s 3 -d 2 -p ack -e 40 -c 1 -i 48 -a 1 -x {3.0 0.0 17 ------- null}
h -t 1.11752 -s 3 -d 2 -p ack -e 40 -c 1 -i 48 -a 1 -x {3.0 0.0 -1 ------- null}
r -t 1.11813176470588 -s 3 -d 2 -p ack -e 40 -c 1 -i 40 -a 1 -x {3.0 0.0 13 ------- null}
+ -t 1.11813176470588 -s 2 -d 0 -p ack -e 40 -c 1 -i 40 -a 1 -x {3.0 0.0 13 ------- null}
- -t 1.11813176470588 -s 2 -d 0 -p ack -e 40 -c 1 -i 40 -a 1 -x {3.0 0.0 13 ------- null}
h -t 1.11813176470588 -s 2 -d 0 -p ack -e 40 -c 1 -i 40 -a 1 -x {3.0 0.0 -1 ------- null}
r -t 1.11832 -s 0 -d 2 -p tcp -e 1040 -c 1 -i 39 -a 1 -x {0.0 3.0 26 ------- null}
+ -t 1.11832 -s 2 -d 3 -p tcp -e 1040 -c 1 -i 39 -a 1 -x {0.0 3.0 26 ------- null}
r -t 1.11850352941176 -s 2 -d 0 -p ack -e 40 -c 1 -i 36 -a 1 -x {3.0 0.0 11 ------- null}
+ -t 1.11850352941176 -s 0 -d 2 -p tcp -e 1040 -c 1 -i 49 -a 1 -x {0.0 3.0 31 ------- null}
- -t 1.1208 -s 0 -d 2 -p tcp -e 1040 -c 1 -i 47 -a 1 -x {0.0 3.0 30 ------- null}
h -t 1.1208 -s 0 -d 2 -p tcp -e 1040 -c 1 -i 47 -a 1 -x {0.0 3.0 -1 ------- null}
- -t 1.12199058823529 -s 2 -d 3 -p tcp -e 1040 -c 1 -i 33 -a 1 -x {0.0 3.0 23 ------- null}
h -t 1.12199058823529 -s 2 -d 3 -p tcp -e 1040 -c 1 -i 33 -a 1 -x {0.0 3.0 -1 ------- null}
r -t 1.12241411764706 -s 2 -d 3 -p tcp -e 1040 -c 1 -i 18 -a 1 -x {0.0 3.0 18 ------- null}
+ -t 1.12241411764706 -s 3 -d 2 -p ack -e 40 -c 1 -i 50 -a 1 -x {3.0 0.0 18 ------- null}
- -t 1.12241411764706 -s 3 -d 2 -p ack -e 40 -c 1 -i 50 -a 1 -x {3.0 0.0 18 ------- null}
h -t 1.12241411764706 -s 3 -d 2 -p ack -e 40 -c 1 -i 50 -a 1 -x {3.0 0.0 -1 ------- null}
r -t 1.12248 -s 0 -d 2 -p tcp -e 1040 -c 1 -i 41 -a 1 -x {0.0 3.0 27 ------- null}