V -t * -v 1.0a5 -a 0
A -t * -n 1 -p 0 -o 0x7fffffff -c 30 -a 1
A -t * -h 1 -m 1073741823 -s 0
c -t * -i 1 -n Blue
c -t * -i 2 -n Red
n -t * -a 0 -s 0 -S UP -v circle -c black -i black
n -t * -a 1 -s 1 -S UP -v circle -c black -i black
n -t * -a 2 -s 2 -S UP -v circle -c black -i black
n -t * -a 3 -s 3 -S UP -v circle -c black -i black
l -t * -s 0 -d 2 -S UP -r 100000000 -D 0.001 -c black
l -t * -s 2 -d 3 -S UP -r 10000000 -D 0.001 -c black
l -t * -s 1 -d 2 -S UP -r 10000000 -D 0.001 -c black
q -t * -s 3 -d 2 -a 0.5
q -t * -s 2 -d 3 -a 0.5
+ -t 1 -s 0 -d 2 -p tcp -e 40 -c 1 -i 0 -a 1 -x {0.0 3.0 0 ------- null}
- -t 1 -s 0 -d 2 -p tcp -e 40 -c 1 -i 0 -a 1 -x {0.0 3.0 0 ------- null}
h -t 1 -s 0 -d 2 -p tcp -e 40 -c 1 -i 0 -a 1 -x {0.0 3.0 -1 ------- null}
r -t 1.0010032 -s 0 -d 2 -p tcp -e 40 -c 1 -i 0 -a 1 -x {0.0 3.0 0 ------- null}
+ -t 1.0010032 -s 2 -d 3 -p tcp -e 40 -c 1 -i 0 -a 1 -x {0.0 3.0 0 ------- null}
- -t 1.0010032 -s 2 -d 3 -p tcp -e 40 -c 1 -i 0 -a 1 -x {0.0 3.0 0 ------- null}
h -t 1.0010032 -s 2 -d 3 -p tcp -e 40 -c 1 -i 0 -a 1 -x {0.0 3.0 -1 ------- null}
r -t 1.0020352 -s 2 -d 3 -p tcp -e 40 -c 1 -i 0 -a 1 -x {0.0 3.0 0 ------- null}
+ -t 1.0020352 -s 3 -d 2 -p ack -e 40 -c 1 -i 1 -a 1 -x {3.0 0.0 0 ------- null}
- -t 1.0020352 -s 3 -d 2 -p ack -e 40 -c 1 -i 1 -a 1 -x {3.0 0.0 0 ------- null}
h -t 1.0020352 -s 3 -d 2 -p ack -e 40 -c 1 -i 1 -a 1 -x {3.0 0.0 -1 ------- null}
r -t 1.0030672 -s 3 -d 2 -p ack -e 40 -c 1 -i 1 -a 1 -x {3.0 0.0 0 ------- null}
+ -t 1.0030672 -s 2 -d 0 -p ack -e 40 -c 1 -i 1 -a 1 -x {3.0 0.0 0 ------- null}
- -t 1.0030672 -s 2 -d 0 -p ack -e 40 -c 1 -i 1 -a 1 -x {3.0 0.0 0 ------- null}
h -t 1.0030672 -s 2 -d 0 -p ack -e 40 -c 1 -i 1 -a 1 -x {3.0 0.0 -1 ------- null}
r -t 1.0040704 -s 2 -d 0 -p ack -e 40 -c 1 -i 1 -a 1 -x {3.0 0.0 0 ------- null}
+ -t 1.0040704 -s 0 -d 2 -p tcp -e 1040 -c 1 -i 2 -a 1 -x {0.0 3.0 1 ------- null}
- -t 1.0040704 -s 0 -d 2 -p tcp -e 1040 -c 1 -i 2 -a 1 -x {0.0 3.0 1 ------- null}
h -t 1.0040704 -s 0 -d 2 -p tcp -e 1040 -c 1 -i 2 -a 1 -x {0.0 3.0 -1 ------- null}
r -t 1.0051536 -s 0 -d 2 -p tcp -e 1040 -c 1 -i 2 -a 1 -x {0.0 3.0 1 ------- null}
+ -t 1.0051536 -s 2 -d 3 -p tcp -e 1040 -c 1 -i 2 -a 1 -x {0.0 3.0 1 ------- null}
- -t 1.0051536 -s 2 -d 3 -p tcp -e 1040 -c 1 -i 2 -a 1 -x {0.0 3.0 1 ------- null}
h -t 1.0051536 -s 2 -d 3 -p tcp -e 1040 -c 1 -i 2 -a 1 -x {0.0 3.0 -1 ------- null}
r -t 1.0069856 -s 2 -d 3 -p tcp -e 1040 -c 1 -i 2 -a 1 -x {0.0 3.0 1 ------- null}
+ -t 1.0069856 -s 3 -d 2 -p ack -e 40 -c 1 -i 3 -a 1 -x {3.0 0.0 1 ------- null}
- -t 1.0069856 -s 3 -d 2 -p ack -e 40 -c 1 -i 3 -a 1 -x {3.0 0.0 1 ------- null}
h -t 1.0069856 -s 3 -d 2 -p ack -e 40 -c 1 -i 3 -a 1 -x {3.0 0.0 -1 ------- null}
r -t 1.0080176 -s 3 -d 2 -p ack -e 40 -c 1 -i 3 -a 1 -x {3.0 0.0 1 ------- null}
+ -t 1.0080176 -s 2 -d 0 -p ack -e 40 -c 1 -i 3 -a 1 -x {3.0 0.0 1 ------- null}
- -t 1.0080176 -s 2 -d 0 -p ack -e 40 -c 1 -i 3 -a 1 -x {3.0 0.0 1 ------- null}
h -t 1.0080176 -s 2 -d 0 -p ack -e 40 -c 1 -i 3 -a 1 -x {3.0 0.0 -1 ------- null}
r -t 1.0090208 -s 2 -d 0 -p ack -e 40 -c 1 -i 3 -a 1 -x {3.0 0.0 1 ------- null}
+ -t 1.0090208 -s 0 -d 2 -p tcp -e 1040 -c 1 -i 4 -a 1 -x {0.0 3.0 2 ------- null}
- -t 1.0090208 -s 0 -d 2 -p tcp -e 1040 -c 1 -i 4 -a 1 -x {0.0 3.0 2 ------- null}
h -t 1.0090208 -s 0 -d 2 -p tcp -e 1040 -c 1 -i 4 -a 1 -x {0.0 3.0 -1 ------- null}
+ -t 1.0090208 -s 0 -d 2 -p tcp -e 1040 -c 1 -i 5 -a 1 -x {0.0 3.0 3 ------- null}
- -t 1.009104 -s 0 -d 2 -p tcp -e 1040 -c 1 -i 5 -a 1 -x {0.0 3.0 3 ------- null}
h -t 1.009104 -s 0 -d 2 -p tcp -e 1040 -c 1 -i 5 -a 1 -x {0.0 3.0 -1 ------- null}
r -t 1.010104 -s 0 -d 2 -p tcp -e 1040 -c 1 -i 4 -a 1 -x {0.0 3.0 2 ------- null}
+ -t 1.010104 -s 2 -d 3 -p tcp -e 1040 -c 1 -i 4 -a 1 -x {0.0 3.0 2 ------- null}
- -t 1.010104 -s 2 -d 3 -p tcp -e 1040 -c 1 -i 4 -a 1 -x {0.0 3.0 2 ------- null}
h -t 1.010104 -s 2 -d 3 -p tcp -e 1040 -c 1 -i 4 -a 1 -x {0.0 3.0 -1 ------- null}
r -t 1.0101872 -s 0 -d 2 -p tcp -e 1040 -c 1 -i 5 -a 1 -x {0.0 3.0 3 ------- null}
+ -t 1.0101872 -s 2 -d 3 -p tcp -e 1040 -c 1 -i 5 -a 1 -x {0.0 3.0 3 ------- null}
- -t 1.010936 -s 2 -d 3 -p tcp -e 1040 -c 1 -i 5 -a 1 -x {0.0 3.0 3 ------- null}
h -t 1.010936 -s 2 -d 3 -p tcp -e 1040 -c 1 -i 5 -a 1 -x {0.0 3.0 -1 ------- null}
r -t 1.011936 -s 2 -d 3 -p tcp -e 1040 -c 1 -i 4 -a 1 -x {0.0 3.0 2 ------- null}
+ -t 1.011936 -s 3 -d 2 -p ack -e 40 -c 1 -i 6 -a 1 -x {3.0 0.0 2 ------- null}
- -t 1.011936 -s 3 -d 2 -p ack -e 40 -c 1 -i 6 -a 1 -x {3.0 0.0 2 ------- null}
h -t 1.011936 -s 3 -d 2 -p ack -e 40 -c 1 -i 6 -a 1 -x {3.0 0.0 -1 ------- null}
r -t 1.012768 -s 2 -d 3 -p tcp -e 1040 -c 1 -i 5 -a 1 -x {0.0 3.0 3 ------- null}
+ -t 1.012768 -s 3 -d 2 -p ack -e 40 -c 1 -i 7 -a 1 -x {3.0 0.0 3 ------- null}
- -t 1.012768 -s 3 -d 2 -p ack -e 40 -c 1 -i 7 -a 1 -x {3.0 0.0 3 ------- null}
h -t 1.012768 -s 3 -d 2 -p ack -e 40 -c 1 -i 7 -a 1 -x {3.0 0.0 -1 ------- null}
r -t 1.012968 -s 3 -d 2 -p ack -e 40 -c 1 -i 6 -a 1 -x {3.0 0.0 2 ------- null}
+ -t 1.012968 -s 2 -d 0 -p ack -e 40 -c 1 -i 6 -a 1 -x {3.0 0.0 2 ------- null}
- -t 1.012968 -s 2 -d 0 -p ack -e 40 -c 1 -i 6 -a 1 -x {3.0 0.0 2 ------- null}
h -t 1.012968 -s 2 -d 0 -p ack -e 40 -c 1 -i 6 -a 1 -x {3.0 0.0 -1 ------- null}
r -t 1.0138 -s 3 -d 2 -p ack -e 40 -c 1 -i 7 -a 1 -x {3.0 0.0 3 ------- null}
+ -t 1.0138 -s 2 -d 0 -p ack -e 40 -c 1 -i 7 -a 1 -x {3.0 0.0 3 ------- null}
- -t 1.0138 -s 2 -d 0 -p ack -e 40 -c 1 -i 7 -a 1 -x {3.0 0.0 3 ------- null}
h -t 1.0138 -s 2 -d 0 -p ack -e 40 -c 1 -i 7 -a 1 -x {3.0 0.0 -1 ------- null}
r -t 1.0139712 -s 2 -d 0 -p ack -e 40 -c 1 -i 6 -a 1 -x {3.0 0.0 2 ------- null}
+ -t 1.0139712 -s 0 -d 2 -p tcp -e 1040 -c 1 -i 8 -a 1 -x {0.0 3.0 4 ------- null}
- -t 1.0139712 -s 0 -d 2 -p tcp -e 1040 -c 1 -i 8 -a 1 -x {0.0 3.0 4 ------- null}
h -t 1.0139712 -s 0 -d 2 -p tcp -e 1040 -c 1 -i 8 -a 1 -x {0.0 3.0 -1 ------- null}
+ -t 1.0139712 -s 0 -d 2 -p tcp -e 1040 -c 1 -i 9 -a 1 -x {0.0 3.0 5 ------- null}
- -t 1.0140544 -s 0 -d 2 -p tcp -e 1040 -c 1 -i 9 -a 1 -x {0.0 3.0 5 ------- null}
h -t 1.0140544 -s 0 -d 2 -p tcp -e 1040 -c 1 -i 9 -a 1 -x {0.0 3.0 -1 ------- null}
r -t 1.0148032 -s 2 -d 0 -p ack -e 40 -c 1 -i 7 -a 1 -x {3.0 0.0 3 ------- null}
+ -t 1.0148032 -s 0 -d 2 -p tcp -e 1040 -c 1 -i 10 -a 1 -x {0.0 3.0 6 ------- null}
- -t 1.0148032 -s 0 -d 2 -p tcp -e 1040 -c 1 -i 10 -a 1 -x {0.0 3.0 6 ------- null}
h -t 1.0148032 -s 0 -d 2 -p tcp -e 1040 -c 1 -i 10 -a 1 -x {0.0 3.0 -1 ------- null}
+ -t 1.0148032 -s 0 -d 2 -p tcp -e 1040 -c 1 -i 11 -a 1 -x {0.0 3.0 7 ------- null}
- -t 1.0148864 -s 0 -d 2 -p tcp -e 1040 -c 1 -i 11 -a 1 -x {0.0 3.0 7 ------- null}
h -t 1.0148864 -s 0 -d 2 -p tcp -e 1040 -c 1 -i 11 -a 1 -x {0.0 3.0 -1 ------- null}
r -t 1.0150544 -s 0 -d 2 -p tcp -e 1040 -c 1 -i 8 -a 1 -x {0.0 3.0 4 ------- null}
+ -t 1.0150544 -s 2 -d 3 -p tcp -e 1040 -c 1 -i 8 -a 1 -x {0.0 3.0 4 ------- null}
- -t 1.0150544 -s 2 -d 3 -p tcp -e 1040 -c 1 -i 8 -a 1 -x {0.0 3.0 4 ------- null}
h -t 1.0150544 -s 2 -d 3 -p tcp -e 1040 -c 1 -i 8 -a 1 -x {0.0 3.0 -1 ------- null}
r -t 1.0151376 -s 0 -d 2 -p tcp -e 1040 -c 1 -i 9 -a 1 -x {0.0 3.0 5 ------- null}
+ -t 1.0151376 -s 2 -d 3 -p tcp -e 1040 -c 1 -i 9 -a 1 -x {0.0 3.0 5 ------- null}
r -t 1.0158864 -s 0 -d 2 -p tcp -e 1040 -c 1 -i 10 -a 1 -x {0.0 3.0 6 ------- null}
+ -t 1.0158864 -s 2 -d 3 -p tcp -e 1040 -c 1 -i 10 -a 1 -x {0.0 3.0 6 ------- null}
- -t 1.0158864 -s 2 -d 3 -p tcp -e 1040 -c 1 -i 9 -a 1 -x {0.0 3.0 5 ------- null}
h -t 1.0158864 -s 2 -d 3 -p tcp -e 1040 -c 1 -i 9 -a 1 -x {0.0 3.0 -1 ------- null}
r -t 1.0159696 -s 0 -d 2 -p tcp -e 1040 -c 1 -i 11 -a 1 -x {0.0 3.0 7 ------- null}
+ -t 1.0159696 -s 2 -d 3 -p tcp -e 1040 -c 1 -i 11 -a 1 -x {0.0 3.0 7 ------- null}
- -t 1.0167184 -s 2 -d 3 -p tcp -e 1040 -c 1 -i 10 -a 1 -x {0.0 3.0 6 ------- null}
h -t 1.0167184 -s 2 -d 3 -p tcp -e 1040 -c 1 -i 10 -a 1 -x {0.0 3.0 -1 ------- null}
r -t 1.0168864 -s 2 -d 3 -p tcp -e 1040 -c 1 -i 8 -a 1 -x {0.0 3.0 4 ------- null}
+ -t 1.0168864 -s 3 -d 2 -p ack -e 40 -c 1 -i 12 -a 1 -x {3.0 0.0 4 ------- null}
- -t 1.0168864 -s 3 -d 2 -p ack -e 40 -c 1 -i 12 -a 1 -x {3.0 0.0 4 ------- null}
h -t 1.0168864 -s 3 -d 2 -p ack -e 40 -c 1 -i 12 -a 1 -x {3.0 0.0 -1 ------- null}
- -t 1.0175504 -s 2 -d 3 -p tcp -e 1040 -c 1 -i 11 -a 1 -x {0.0 3.0 7 ------- null}
h -t 1.0175504 -s 2 -d 3 -p tcp -e 1040 -c 1 -i 11 -a 1 -x {0.0 3.0 -1 ------- null}
r -t 1.0177184 -s 2 -d 3 -p tcp -e 1040 -c 1 -i 9 -a 1 -x {0.0 3.0 5 ------- null}
+ -t 1.0177184 -s 3 -d 2 -p ack -e 40 -c 1 -i 13 -a 1 -x {3.0 0.0 5 ------- null}
- -t 1.0177184 -s 3 -d 2 -p ack -e 40 -c 1 -i 13 -a 1 -x {3.0 0.0 5 ------- null}
h -t 1.0177184 -s 3 -d 2 -p ack -e 40 -c 1 -i 13 -a 1 -x {3.0 0.0 -1 ------- null}
r -t 1.0179184 -s 3 -d 2 -p ack -e 40 -c 1 -i 12 -a 1 -x {3.0 0.0 4 ------- null}
+ -t 1.0179184 -s 2 -d 0 -p ack -e 40 -c 1 -i 12 -a 1 -x {3.0 0.0 4 ------- null}
- -t 1.0179184 -s 2 -d 0 -p ack -e 40 -c 1 -i 12 -a 1 -x {3.0 0.0 4 ------- null}
h -t 1.0179184 -s 2 -d 0 -p ack -e 40 -c 1 -i 12 -a 1 -x {3.0 0.0 -1 ------- null}
r -t 1.0185504 -s 2 -d 3 -p tcp -e 1040 -c 1 -i 10 -a 1 -x {0.0 3.0 6 ------- null}
+ -t 1.0185504 -s 3 -d 2 -p ack -e 40 -c 1 -i 14 -a 1 -x {3.0 0.0 6 ------- null}
- -t 1.0185504 -s 3 -d 2 -p ack -e 40 -c 1 -i 14 -a 1 -x {3.0 0.0 6 ------- null}
h -t 1.0185504 -s 3 -d 2 -p ack -e 40 -c 1 -i 14 -a 1 -x {3.0 0.0 -1 ------- null}
r -t 1.0187504 -s 3 -d 2 -p ack -e 40 -c 1 -i 13 -a 1 -x {3.0 0.0 5 ------- null}
+ -t 1.0187504 -s 2 -d 0 -p ack -e 40 -c 1 -i 13 -a 1 -x {3.0 0.0 5 ------- null}
- -t 1.0187504 -s 2 -d 0 -p ack -e 40 -c 1 -i 13 -a 1 -x {3.0 0.0 5 ------- null}
h -t 1.0187504 -s 2 -d 0 -p ack -e 40 -c 1 -i 13 -a 1 -x {3.0 0.0 -1 ------- null}
r -t 1.0189216 -s 2 -d 0 -p ack -e 40 -c 1 -i 12 -a 1 -x {3.0 0.0 4 ------- null}
+ -t 1.0189216 -s 0 -d 2 -p tcp -e 1040 -c 1 -i 15 -a 1 -x {0.0 3.0 8 ------- null}
- -t 1.0189216 -s 0 -d 2 -p tcp -e 1040 -c 1 -i 15 -a 1 -x {0.0 3.0 8 ------- null}
h -t 1.0189216 -s 0 -d 2 -p tcp -e 1040 -c 1 -i 15 -a 1 -x {0.0 3.0 -1 ------- null}
+ -t 1.0189216 -s 0 -d 2 -p tcp -e 1040 -c 1 -i 16 -a 1 -x {0.0 3.0 9 ------- null}
- -t 1.0190048 -s 0 -d 2 -p tcp -e 1040 -c 1 -i 16 -a 1 -x {0.0 3.0 9 ------- null}
h -t 1.0190048 -s 0 -d 2 -p tcp -e 1040 -c 1 -i 16 -a 1 -x {0.0 3.0 -1 ------- null}
r -t 1.0193824 -s 2 -d 3 -p tcp -e 1040 -c 1 -i 11 -a 1 -x {0.0 3.0 7 ------- null}
+ -t 1.0193824 -s 3 -d 2 -p ack -e 40 -c 1 -i 17 -a 1 -x {3.0 0.0 7 ------- null}
- -t 1.0193824 -s 3 -d 2 -p ack -e 40 -c 1 -i 17 -a 1 -x {3.0 0.0 7 ------- null}
h -t 1.0193824 -s 3 -d 2 -p ack -e 40 -c 1 -i 17 -a 1 -x {3.0 0.0 -1 ------- null}
r -t 1.0195824 -s 3 -d 2 -p ack -e 40 -c 1 -i 14 -a 1 -x {3.0 0.0 6 ------- null}
+ -t 1.0195824 -s 2 -d 0 -p ack -e 40 -c 1 -i 14 -a 1 -x {3.0 0.0 6 ------- null}
- -t 1.0195824 -s 2 -d 0 -p ack -e 40 -c 1 -i 14 -a 1 -x {3.0 0.0 6 ------- null}
h -t 1.0195824 -s 2 -d 0 -p ack -e 40 -c 1 -i 14 -a 1 -x {3.0 0.0 -1 ------- null}
r -t 1.0197536 -s 2 -d 0 -p ack -e 40 -c 1 -i 13 -a 1 -x {3.0 0.0 5 ------- null}
+ -t 1.0197536 -s 0 -d 2 -p tcp -e 1040 -c 1 -i 18 -a 1 -x {0.0 3.0 10 ------- null}
- -t 1.0197536 -s 0 -d 2 -p tcp -e 1040 -c 1 -i 18 -a 1 -x {0.0 3.0 10 ------- null}
h -t 1.0197536 -s 0 -d 2 -p tcp -e 1040 -c 1 -i 18 -a 1 -x {0.0 3.0 -1 ------- null}
+ -t 1.0197536 -s 0 -d 2 -p tcp -e 1040 -c 1 -i 19 -a 1 -x {0.0 3.0 11 ------- null}
- -t 1.0198368 -s 0 -d 2 -p tcp -e 1040 -c 1 -i 19 -a 1 -x {0.0 3.0 11 ------- null}
h -t 1.0198368 -s 0 -d 2 -p tcp -e 1040 -c 1 -i 19 -a 1 -x {0.0 3.0 -1 ------- null}
r -t 1.0200048 -s 0 -d 2 -p tcp -e 1040 -c 1 -i 15 -a 1 -x {0.0 3.0 8 ------- null}
+ -t 1.0200048 -s 2 -d 3 -p tcp -e 1040 -c 1 -i 15 -a 1 -x {0.0 3.0 8 ------- null}
- -t 1.0200048 -s 2 -d 3 -p tcp -e 1040 -c 1 -i 15 -a 1 -x {0.0 3.0 8 ------- null}
h -t 1.0200048 -s 2 -d 3 -p tcp -e 1040 -c 1 -i 15 -a 1 -x {0.0 3.0 -1 ------- null}
r -t 1.020088 -s 0 -d 2 -p tcp -e 1040 -c 1 -i 16 -a 1 -x {0.0 3.0 9 ------- null}
+ -t 1.020088 -s 2 -d 3 -p tcp -e 1040 -c 1 -i 16 -a 1 -x {0.0 3.0 9 ------- null}
r -t 1.0204144 -s 3 -d 2 -p ack -e 40 -c 1 -i 17 -a 1 -x {3.0 0.0 7 ------- null}
+ -t 1.0204144 -s 2 -d 0 -p ack -e 40 -c 1 -i 17 -a 1 -x {3.0 0.0 7 ------- null}
- -t 1.0204144 -s 2 -d 0 -p ack -e 40 -c 1 -i 17 -a 1 -x {3.0 0.0 7 ------- null}
h -t 1.0204144 -s 2 -d 0 -p ack -e 40 -c 1 -i 17 -a 1 -x {3.0 0.0 -1 ------- null}
r -t 1.0205856 -s 2 -d 0 -p ack -e 40 -c 1 -i 14 -a 1 -x {3.0 0.0 6 ------- null}
+ -t 1.0205856 -s 0 -d 2 -p tcp -e 1040 -c 1 -i 20 -a 1 -x {0.0 3.0 12 ------- null}
- -t 1.0205856 -s 0 -d 2 -p tcp -e 1040 -c 1 -i 20 -a 1 -x {0.0 3.0 12 ------- null}
h -t 1.0205856 -s 0 -d 2 -p tcp -e 1040 -c 1 -i 20 -a 1 -x {0.0 3.0 -1 ------- null}
+ -t 1.0205856 -s 0 -d 2 -p tcp -e 1040 -c 1 -i 21 -a 1 -x {0.0 3.0 13 ------- null}
- -t 1.0206688 -s 0 -d 2 -p tcp -e 1040 -c 1 -i 21 -a 1 -x {0.0 3.0 13 ------- null}
h -t 1.0206688 -s 0 -d 2 -p tcp -e 1040 -c 1 -i 21 -a 1 -x {0.0 3.0 -1 ------- null}
r -t 1.0208368 -s 0 -d 2 -p tcp -e 1040 -c 1 -i 18 -a 1 -x {0.0 3.0 10 ------- null}
+ -t 1.0208368 -s 2 -d 3 -p tcp -e 1040 -c 1 -i 18 -a 1 -x {0.0 3.0 10 ------- null}
- -t 1.0208368 -s 2 -d 3 -p tcp -e 1040 -c 1 -i 16 -a 1 -x {0.0 3.0 9 ------- null}
h -t 1.0208368 -s 2 -d 3 -p tcp -e 1040 -c 1 -i 16 -a 1 -x {0.0 3.0 -1 ------- null}
r -t 1.02092 -s 0 -d 2 -p tcp -e 1040 -c 1 -i 19 -a 1 -x {0.0 3.0 11 ------- null}
+ -t 1.02092 -s 2 -d 3 -p tcp -e 1040 -c 1 -i 19 -a 1 -x {0.0 3.0 11 ------- null}
r -t 1.0214176 -s 2 -d 0 -p ack -e 40 -c 1 -i 17 -a 1 -x {3.0 0.0 7 ------- null}
+ -t 1.0214176 -s 0 -d 2 -p tcp -e 1040 -c 1 -i 22 -a 1 -x {0.0 3.0 14 ------- null}
- -t 1.0214176 -s 0 -d 2 -p tcp -e 1040 -c 1 -i 22 -a 1 -x {0.0 3.0 14 ------- null}
h -t 1.0214176 -s 0 -d 2 -p tcp -e 1040 -c 1 -i 22 -a 1 -x {0.0 3.0 -1 ------- null}
+ -t 1.0214176 -s 0 -d 2 -p tcp -e 1040 -c 1 -i 23 -a 1 -x {0.0 3.0 15 ------- null}
- -t 1.0215008 -s 0 -d 2 -p tcp -e 1040 -c 1 -i 23 -a 1 -x {0.0 3.0 15 ------- null}
h -t 1.0215008 -s 0 -d 2 -p tcp -e 1040 -c 1 -i 23 -a 1 -x {0.0 3.0 -1 ------- null}
r -t 1.0216688 -s 0 -d 2 -p tcp -e 1040 -c 1 -i 20 -a 1 -x {0.0 3.0 12 ------- null}
+ -t 1.0216688 -s 2 -d 3 -p tcp -e 1040 -c 1 -i 20 -a 1 -x {0.0 3.0 12 ------- null}
- -t 1.0216688 -s 2 -d 3 -p tcp -e 1040 -c 1 -i 18 -a 1 -x {0.0 3.0 10 ------- null}
h -t 1.0216688 -s 2 -d 3 -p tcp -e 1040 -c 1 -i 18 -a 1 -x {0.0 3.0 -1 ------- null}
r -t 1.021752 -s 0 -d 2 -p tcp -e 1040 -c 1 -i 21 -a 1 -x {0.0 3.0 13 ------- null}
+ -t 1.021752 -s 2 -d 3 -p tcp -e 1040 -c 1 -i 21 -a 1 -x {0.0 3.0 13 ------- null}
r -t 1.0218368 -s 2 -d 3 -p tcp -e 1040 -c 1 -i 15 -a 1 -x {0.0 3.0 8 ------- null}
+ -t 1.0218368 -s 3 -d 2 -p ack -e 40 -c 1 -i 24 -a 1 -x {3.0 0.0 8 ------- null}
- -t 1.0218368 -s 3 -d 2 -p ack -e 40 -c 1 -i 24 -a 1 -x {3.0 0.0 8 ------- null}
h -t 1.0218368 -s 3 -d 2 -p ack -e 40 -c 1 -i 24 -a 1 -x {3.0 0.0 -1 ------- null}
r -t 1.0225008 -s 0 -d 2 -p tcp -e 1040 -c 1 -i 22 -a 1 -x {0.0 3.0 14 ------- null}
+ -t 1.0225008 -s 2 -d 3 -p tcp -e 1040 -c 1 -i 22 -a 1 -x {0.0 3.0 14 ------- null}
- -t 1.0225008 -s 2 -d 3 -p tcp -e 1040 -c 1 -i 19 -a 1 -x {0.0 3.0 11 ------- null}
h -t 1.0225008 -s 2 -d 3 -p tcp -e 1040 -c 1 -i 19 -a 1 -x {0.0 3.0 -1 ------- null}
r -t 1.022584 -s 0 -d 2 -p tcp -e 1040 -c 1 -i 23 -a 1 -x {0.0 3.0 15 ------- null}
+ -t 1.022584 -s 2 -d 3 -p tcp -e 1040 -c 1 -i 23 -a 1 -x {0.0 3.0 15 ------- null}
r -t 1.0226688 -s 2 -d 3 -p tcp -e 1040 -c 1 -i 16 -a 1 -x {0.0 3.0 9 ------- null}
+ -t 1.0226688 -s 3 -d 2 -p ack -e 40 -c 1 -i 25 -a 1 -x {3.0 0.0 9 ------- null}
- -t 1.0226688 -s 3 -d 2 -p ack -e 40 -c 1 -i 25 -a 1 -x {3.0 0.0 9 ------- null}
h -t 1.0226688 -s 3 -d 2 -p ack -e 40 -c 1 -i 25 -a 1 -x {3.0 0.0 -1 ------- null}
r -t 1.0228688 -s 3 -d 2 -p ack -e 40 -c 1 -i 24 -a 1 -x {3.0 0.0 8 ------- null}
+ -t 1.0228688 -s 2 -d 0 -p ack -e 40 -c 1 -i 24 -a 1 -x {3.0 0.0 8 ------- null}
- -t 1.0228688 -s 2 -d 0 -p ack -e 40 -c 1 -i 24 -a 1 -x {3.0 0.0 8 ------- null}
h -t 1.0228688 -s 2 -d 0 -p ack -e 40 -c 1 -i 24 -a 1 -x {3.0 0.0 -1 ------- null}
- -t 1.0233328 -s 2 -d 3 -p tcp -e 1040 -c 1 -i 20 -a 1 -x {0.0 3.0 12 ------- null}
h -t 1.0233328 -s 2 -d 3 -p tcp -e 1040 -c 1 -i 20 -a 1 -x {0.0 3.0 -1 ------- null}
r -t 1.0235008 -s 2 -d 3 -p tcp -e 1040 -c 1 -i 18 -a 1 -x {0.0 3.0 10 ------- null}
+ -t 1.0235008 -s 3 -d 2 -p ack -e 40 -c 1 -i 26 -a 1 -x {3.0 0.0 10 ------- null}
- -t 1.0235008 -s 3 -d 2 -p ack -e 40 -c 1 -i 26 -a 1 -x {3.0 0.0 10 ------- null}
h -t 1.0235008 -s 3 -d 2 -p ack -e 40 -c 1 -i 26 -a 1 -x {3.0 0.0 -1 ------- null}
r -t 1.0237008 -s 3 -d 2 -p ack -e 40 -c 1 -i 25 -a 1 -x {3.0 0.0 9 ------- null}
+ -t 1.0237008 -s 2 -d 0 -p ack -e 40 -c 1 -i 25 -a 1 -x {3.0 0.0 9 ------- null}
- -t 1.0237008 -s 2 -d 0 -p ack -e 40 -c 1 -i 25 -a 1 -x {3.0 0.0 9 ------- null}
h -t 1.0237008 -s 2 -d 0 -p ack -e 40 -c 1 -i 25 -a 1 -x {3.0 0.0 -1 ------- null}
r -t 1.023872 -s 2 -d 0 -p ack -e 40 -c 1 -i 24 -a 1 -x {3.0 0.0 8 ------- null}
+ -t 1.023872 -s 0 -d 2 -p tcp -e 1040 -c 1 -i 27 -a 1 -x {0.0 3.0 16 ------- null}
- -t 1.023872 -s 0 -d 2 -p tcp -e 1040 -c 1 -i 27 -a 1 -x {0.0 3.0 16 ------- null}
h -t 1.023872 -s 0 -d 2 -p tcp -e 1040 -c 1 -i 27 -a 1 -x {0.0 3.0 -1 ------- null}
+ -t 1.023872 -s 0 -d 2 -p tcp -e 1040 -c 1 -i 28 -a 1 -x {0.0 3.0 17 ------- null}
- -t 1.0239552 -s 0 -d 2 -p tcp -e 1040 -c 1 -i 28 -a 1 -x {0.0 3.0 17 ------- null}
h -t 1.0239552 -s 0 -d 2 -p tcp -e 1040 -c 1 -i 28 -a 1 -x {0.0 3.0 -1 ------- null}
- -t 1.0241648 -s 2 -d 3 -p tcp -e 1040 -c 1 -i 21 -a 1 -x {0.0 3.0 13 ------- null}
h -t 1.0241648 -s 2 -d 3 -p tcp -e 1040 -c 1 -i 21 -a 1 -x {0.0 3.0 -1 ------- null}
r -t 1.0243328 -s 2 -d 3 -p tcp -e 1040 -c 1 -i 19 -a 1 -x {0.0 3.0 11 ------- null}
+ -t 1.0243328 -s 3 -d 2 -p ack -e 40 -c 1 -i 29 -a 1 -x {3.0 0.0 11 ------- null}
- -t 1.0243328 -s 3 -d 2 -p ack -e 40 -c 1 -i 29 -a 1 -x {3.0 0.0 11 ------- null}
h -t 1.0243328 -s 3 -d 2 -p ack -e 40 -c 1 -i 29 -a 1 -x {3.0 0.0 -1 ------- null}
r -t 1.0245328 -s 3 -d 2 -p ack -e 40 -c 1 -i 26 -a 1 -x {3.0 0.0 10 ------- null}
+ -t 1.0245328 -s 2 -d 0 -p ack -e 40 -c 1 -i 26 -a 1 -x {3.0 0.0 10 ------- null}
- -t 1.0245328 -s 2 -d 0 -p ack -e 40 -c 1 -i 26 -a 1 -x {3.0 0.0 10 ------- null}
h -t 1.0245328 -s 2 -d 0 -p ack -e 40 -c 1 -i 26 -a 1 -x {3.0 0.0 -1 ------- null}
r -t 1.024704 -s 2 -d 0 -p ack -e 40 -c 1 -i 25 -a 1 -x {3.0 0.0 9 ------- null}
+ -t 1.024704 -s 0 -d 2 -p tcp -e 1040 -c 1 -i 30 -a 1 -x {0.0 3.0 18 ------- null}
- -t 1.024704 -s 0 -d 2 -p tcp -e 1040 -c 1 -i 30 -a 1 -x {0.0 3.0 18 ------- null}
h -t 1.024704 -s 0 -d 2 -p tcp -e 1040 -c 1 -i 30 -a 1 -x {0.0 3.0 -1 ------- null}
+ -t 1.024704 -s 0 -d 2 -p tcp -e 1040 -c 1 -i 31 -a 1 -x {0.0 3.0 19 ------- null}
- -t 1.0247872 -s 0 -d 2 -p tcp -e 1040 -c 1 -i 31 -a 1 -x {0.0 3.0 19 ------- null}
h -t 1.0247872 -s 0 -d 2 -p tcp -e 1040 -c 1 -i 31 -a 1 -x {0.0 3.0 -1 ------- null}
r -t 1.0249552 -s 0 -d 2 -p tcp -e 1040 -c 1 -i 27 -a 1 -x {0.0 3.0 16 ------- null}
+ -t 1.0249552 -s 2 -d 3 -p tcp -e 1040 -c 1 -i 27 -a 1 -x {0.0 3.0 16 ------- null}
- -t 1.0249968 -s 2 -d 3 -p tcp -e 1040 -c 1 -i 22 -a 1 -x {0.0 3.0 14 ------- null}
h -t 1.0249968 -s 2 -d 3 -p tcp -e 1040 -c 1 -i 22 -a 1 -x {0.0 3.0 -1 ------- null}
r -t 1.0250384 -s 0 -d 2 -p tcp -e 1040 -c 1 -i 28 -a 1 -x {0.0 3.0 17 ------- null}
+ -t 1.0250384 -s 2 -d 3 -p tcp -e 1040 -c 1 -i 28 -a 1 -x {0.0 3.0 17 ------- null}
r -t 1.0251648 -s 2 -d 3 -p tcp -e 1040 -c 1 -i 20 -a 1 -x {0.0 3.0 12 ------- null}
+ -t 1.0251648 -s 3 -d 2 -p ack -e 40 -c 1 -i 32 -a 1 -x {3.0 0.0 12 ------- null}
- -t 1.0251648 -s 3 -d 2 -p ack -e 40 -c 1 -i 32 -a 1 -x {3.0 0.0 12 ------- null}
h -t 1.0251648 -s 3 -d 2 -p ack -e 40 -c 1 -i 32 -a 1 -x {3.0 0.0 -1 ------- null}
r -t 1.0253648 -s 3 -d 2 -p ack -e 40 -c 1 -i 29 -a 1 -x {3.0 0.0 11 ------- null}
+ -t 1.0253648 -s 2 -d 0 -p ack -e 40 -c 1 -i 29 -a 1 -x {3.0 0.0 11 ------- null}
- -t 1.0253648 -s 2 -d 0 -p ack -e 40 -c 1 -i 29 -a 1 -x {3.0 0.0 11 ------- null}
h -t 1.0253648 -s 2 -d 0 -p ack -e 40 -c 1 -i 29 -a 1 -x {3.0 0.0 -1 ------- null}
r -t 1.025536 -s 2 -d 0 -p ack -e 40 -c 1 -i 26 -a 1 -x {3.0 0.0 10 ------- null}
+ -t 1.025536 -s 0 -d 2 -p tcp -e 1040 -c 1 -i 33 -a 1 -x {0.0 3.0 20 ------- null}
- -t 1.025536 -s 0 -d 2 -p tcp -e 1040 -c 1 -i 33 -a 1 -x {0.0 3.0 20 ------- null}
h -t 1.025536 -s 0 -d 2 -p tcp -e 1040 -c 1 -i 33 -a 1 -x {0.0 3.0 -1 ------- null}
+ -t 1.025536 -s 0 -d 2 -p tcp -e 1040 -c 1 -i 34 -a 1 -x {0.0 3.0 21 ------- null}
- -t 1.0256192 -s 0 -d 2 -p tcp -e 1040 -c 1 -i 34 -a 1 -x {0.0 3.0 21 ------- null}
h -t 1.0256192 -s 0 -d 2 -p tcp -e 1040 -c 1 -i 34 -a 1 -x {0.0 3.0 -1 ------- null}
r -t 1.0257872 -s 0 -d 2 -p tcp -e 1040 -c 1 -i 30 -a 1 -x {0.0 3.0 18 ------- null}
+ -t 1.0257872 -s 2 -d 3 -p tcp -e 1040 -c 1 -i 30 -a 1 -x {0.0 3.0 18 ------- null}
- -t 1.0258288 -s 2 -d 3 -p tcp -e 1040 -c 1 -i 23 -a 1 -x {0.0 3.0 15 ------- null}
h -t 1.0258288 -s 2 -d 3 -p tcp -e 1040 -c 1 -i 23 -a 1 -x {0.0 3.0 -1 ------- null}
r -t 1.0258704 -s 0 -d 2 -p tcp -e 1040 -c 1 -i 31 -a 1 -x {0.0 3.0 19 ------- null}
+ -t 1.0258704 -s 2 -d 3 -p tcp -e 1040 -c 1 -i 31 -a 1 -x {0.0 3.0 19 ------- null}
r -t 1.0259968 -s 2 -d 3 -p tcp -e 1040 -c 1 -i 21 -a 1 -x {0.0 3.0 13 ------- null}
+ -t 1.0259968 -s 3 -d 2 -p ack -e 40 -c 1 -i 35 -a 1 -x {3.0 0.0 13 ------- null}
- -t 1.0259968 -s 3 -d 2 -p ack -e 40 -c 1 -i 35 -a 1 -x {3.0 0.0 13 ------- null}
h -t 1.0259968 -s 3 -d 2 -p ack -e 40 -c 1 -i 35 -a 1 -x {3.0 0.0 -1 ------- null}
r -t 1.0261968 -s 3 -d 2 -p ack -e 40 -c 1 -i 32 -a 1 -x {3.0 0.0 12 ------- null}
+ -t 1.0261968 -s 2 -d 0 -p ack -e 40 -c 1 -i 32 -a 1 -x {3.0 0.0 12 ------- null}
- -t 1.0261968 -s 2 -d 0 -p ack -e 40 -c 1 -i 32 -a 1 -x {3.0 0.0 12 ------- null}
h -t 1.0261968 -s 2 -d 0 -p ack -e 40 -c 1 -i 32 -a 1 -x {3.0 0.0 -1 ------- null}
r -t 1.026368 -s 2 -d 0 -p ack -e 40 -c 1 -i 29 -a 1 -x {3.0 0.0 11 ------- null}
+ -t 1.026368 -s 0 -d 2 -p tcp -e 1040 -c 1 -i 36 -a 1 -x {0.0 3.0 22 ------- null}
- -t 1.026368 -s 0 -d 2 -p tcp -e 1040 -c 1 -i 36 -a 1 -x {0.0 3.0 22 ------- null}
h -t 1.026368 -s 0 -d 2 -p tcp -e 1040 -c 1 -i 36 -a 1 -x {0.0 3.0 -1 ------- null}
+ -t 1.026368 -s 0 -d 2 -p tcp -e 1040 -c 1 -i 37 -a 1 -x {0.0 3.0 23 ------- null}
- -t 1.0264512 -s 0 -d 2 -p tcp -e 1040 -c 1 -i 37 -a 1 -x {0.0 3.0 23 ------- null}
h -t 1.0264512 -s 0 -d 2 -p tcp -e 1040 -c 1 -i 37 -a 1 -x {0.0 3.0 -1 ------- null}
r -t 1.0266192 -s 0 -d 2 -p tcp -e 1040 -c 1 -i 33 -a 1 -x {0.0 3.0 20 ------- null}
+ -t 1.0266192 -s 2 -d 3 -p tcp -e 1040 -c 1 -i 33 -a 1 -x {0.0 3.0 20 ------- null}
- -t 1.0266608 -s 2 -d 3 -p tcp -e 1040 -c 1 -i 27 -a 1 -x {0.0 3.0 16 ------- null}
h -t 1.0266608 -s 2 -d 3 -p tcp -e 1040 -c 1 -i 27 -a 1 -x {0.0 3.0 -1 ------- null}
r -t 1.0267024 -s 0 -d 2 -p tcp -e 1040 -c 1 -i 34 -a 1 -x {0.0 3.0 21 ------- null}
+ -t 1.0267024 -s 2 -d 3 -p tcp -e 1040 -c 1 -i 34 -a 1 -x {0.0 3.0 21 ------- null}
r -t 1.0268288 -s 2 -d 3 -p tcp -e 1040 -c 1 -i 22 -a 1 -x {0.0 3.0 14 ------- null}
+ -t 1.0268288 -s 3 -d 2 -p ack -e 40 -c 1 -i 38 -a 1 -x {3.0 0.0 14 ------- null}
- -t 1.0268288 -s 3 -d 2 -p ack -e 40 -c 1 -i 38 -a 1 -x {3.0 0.0 14 ------- null}
h -t 1.0268288 -s 3 -d 2 -p ack -e 40 -c 1 -i 38 -a 1 -x {3.0 0.0 -1 ------- null}
r -t 1.0270288 -s 3 -d 2 -p ack -e 40 -c 1 -i 35 -a 1 -x {3.0 0.0 13 ------- null}
+ -t 1.0270288 -s 2 -d 0 -p ack -e 40 -c 1 -i 35 -a 1 -x {3.0 0.0 13 ------- null}
- -t 1.0270288 -s 2 -d 0 -p ack -e 40 -c 1 -i 35 -a 1 -x {3.0 0.0 13 ------- null}
h -t 1.0270288 -s 2 -d 0 -p ack -e 40 -c 1 -i 35 -a 1 -x {3.0 0.0 -1 ------- null}
r -t 1.0272 -s 2 -d 0 -p ack -e 40 -c 1 -i 32 -a 1 -x {3.0 0.0 12 ------- null}
+ -t 1.0272 -s 0 -d 2 -p tcp -e 1040 -c 1 -i 39 -a 1 -x {0.0 3.0 24 ------- null}
- -t 1.0272 -s 0 -d 2 -p tcp -e 1040 -c 1 -i 39 -a 1 -x {0.0 3.0 24 ------- null}
h -t 1.0272 -s 0 -d 2 -p tcp -e 1040 -c 1 -i 39 -a 1 -x {0.0 3.0 -1 ------- null}
+ -t 1.0272 -s 0 -d 2 -p tcp -e 1040 -c 1 -i 40 -a 1 -x {0.0 3.0 25 ------- null}
- -t 1.0272832 -s 0 -d 2 -p tcp -e 1040 -c 1 -i 40 -a 1 -x {0.0 3.0 25 ------- null}
h -t 1.0272832 -s 0 -d 2 -p tcp -e 1040 -c 1 -i 40 -a 1 -x {0.0 3.0 -1 ------- null}
r -t 1.0274512 -s 0 -d 2 -p tcp -e 1040 -c 1 -i 36 -a 1 -x {0.0 3.0 22 ------- null}
+ -t 1.0274512 -s 2 -d 3 -p tcp -e 1040 -c 1 -i 36 -a 1 -x {0.0 3.0 22 ------- null}
- -t 1.0274928 -s 2 -d 3 -p tcp -e 1040 -c 1 -i 28 -a 1 -x {0.0 3.0 17 ------- null}
h -t 1.0274928 -s 2 -d 3 -p tcp -e 1040 -c 1 -i 28 -a 1 -x {0.0 3.0 -1 ------- null}
r -t 1.0275344 -s 0 -d 2 -p tcp -e 1040 -c 1 -i 37 -a 1 -x {0.0 3.0 23 ------- null}
+ -t 1.0275344 -s 2 -d 3 -p tcp -e 1040 -c 1 -i 37 -a 1 -x {0.0 3.0 23 ------- null}
r -t 1.0276608 -s 2 -d 3 -p tcp -e 1040 -c 1 -i 23 -a 1 -x {0.0 3.0 15 ------- null}
+ -t 1.0276608 -s 3 -d 2 -p ack -e 40 -c 1 -i 41 -a 1 -x {3.0 0.0 15 ------- null}
- -t 1.0276608 -s 3 -d 2 -p ack -e 40 -c 1 -i 41 -a 1 -x {3.0 0.0 15 ------- null}
h -t 1.0276608 -s 3 -d 2 -p ack -e 40 -c 1 -i 41 -a 1 -x {3.0 0.0 -1 ------- null}
r -t 1.0278608 -s 3 -d 2 -p ack -e 40 -c 1 -i 38 -a 1 -x {3.0 0.0 14 ------- null}
+ -t 1.0278608 -s 2 -d 0 -p ack -e 40 -c 1 -i 38 -a 1 -x {3.0 0.0 14 ------- null}
- -t 1.0278608 -s 2 -d 0 -p ack -e 40 -c 1 -i 38 -a 1 -x {3.0 0.0 14 ------- null}
h -t 1.0278608 -s 2 -d 0 -p ack -e 40 -c 1 -i 38 -a 1 -x {3.0 0.0 -1 ------- null}
r -t 1.028032 -s 2 -d 0 -p ack -e 40 -c 1 -i 35 -a 1 -x {3.0 0.0 13 ------- null}
+ -t 1.028032 -s 0 -d 2 -p tcp -e 1040 -c 1 -i 42 -a 1 -x {0.0 3.0 26 ------- null}
- -t 1.028032 -s 0 -d 2 -p tcp -e 1040 -c 1 -i 42 -a 1 -x {0.0 3.0 26 ------- null}
h -t 1.028032 -s 0 -d 2 -p tcp -e 1040 -c 1 -i 42 -a 1 -x {0.0 3.0 -1 ------- null}
+ -t 1.028032 -s 0 -d 2 -p tcp -e 1040 -c 1 -i 43 -a 1 -x {0.0 3.0 27 ------- null}
- -t 1.0281152 -s 0 -d 2 -p tcp -e 1040 -c 1 -i 43 -a 1 -x {0.0 3.0 27 ------- null}
h -t 1.0281152 -s 0 -d 2 -p tcp -e 1040 -c 1 -i 43 -a 1 -x {0.0 3.0 -1 ------- null}
r -t 1.0282832 -s 0 -d 2 -p tcp -e 1040 -c 1 -i 39 -a 1 -x {0.0 3.0 24 ------- null}
+ -t 1.0282832 -s 2 -d 3 -p tcp -e 1040 -c 1 -i 39 -a 1 -x {0.0 3.0 24 ------- null}
- -t 1.0283248 -s 2 -d 3 -p tcp -e 1040 -c 1 -i 30 -a 1 -x {0.0 3.0 18 ------- null}
h -t 1.0283248 -s 2 -d 3 -p tcp -e 1040 -c 1 -i 30 -a 1 -x {0.0 3.0 -1 ------- null}
r -t 1.0283664 -s 0 -d 2 -p tcp -e 1040 -c 1 -i 40 -a 1 -x {0.0 3.0 25 ------- null}
+ -t 1.0283664 -s 2 -d 3 -p tcp -e 1040 -c 1 -i 40 -a 1 -x {0.0 3.0 25 ------- null}
r -t 1.0284928 -s 2 -d 3 -p tcp -e 1040 -c 1 -i 27 -a 1 -x {0.0 3.0 16 ------- null}
+ -t 1.0284928 -s 3 -d 2 -p ack -e 40 -c 1 -i 44 -a 1 -x {3.0 0.0 16 ------- null}
- -t 1.0284928 -s 3 -d 2 -p ack -e 40 -c 1 -i 44 -a 1 -x {3.0 0.0 16 ------- null}
h -t 1.0284928 -s 3 -d 2 -p ack -e 40 -c 1 -i 44 -a 1 -x {3.0 0.0 -1 ------- null}
r -t 1.0286928 -s 3 -d 2 -p ack -e 40 -c 1 -i 41 -a 1 -x {3.0 0.0 15 ------- null}
+ -t 1.0286928 -s 2 -d 0 -p ack -e 40 -c 1 -i 41 -a 1 -x {3.0 0.0 15 ------- null}
- -t 1.0286928 -s 2 -d 0 -p ack -e 40 -c 1 -i 41 -a 1 -x {3.0 0.0 15 ------- null}
h -t 1.0286928 -s 2 -d 0 -p ack -e 40 -c 1 -i 41 -a 1 -x {3.0 0.0 -1 ------- null}
r -t 1.028864 -s 2 -d 0 -p ack -e 40 -c 1 -i 38 -a 1 -x {3.0 0.0 14 ------- null}
+ -t 1.028864 -s 0 -d 2 -p tcp -e 1040 -c 1 -i 45 -a 1 -x {0.0 3.0 28 ------- null}
- -t 1.028864 -s 0 -d 2 -p tcp -e 1040 -c 1 -i 45 -a 1 -x {0.0 3.0 28 ------- null}
h -t 1.028864 -s 0 -d 2 -p tcp -e 1040 -c 1 -i 45 -a 1 -x {0.0 3.0 -1 ------- null}
+ -t 1.028864 -s 0 -d 2 -p tcp -e 1040 -c 1 -i 46 -a 1 -x {0.0 3.0 29 ------- null}
- -t 1.0289472 -s 0 -d 2 -p tcp -e 1040 -c 1 -i 46 -a 1 -x {0.0 3.0 29 ------- null}
h -t 1.0289472 -s 0 -d 2 -p tcp -e 1040 -c 1 -i 46 -a 1 -x {0.0 3.0 -1 ------- null}
r -t 1.0291152 -s 0 -d 2 -p tcp -e 1040 -c 1 -i 42 -a 1 -x {0.0 3.0 26 ------- null}
+ -t 1.0291152 -s 2 -d 3 -p tcp -e 1040 -c 1 -i 42 -a 1 -x {0.0 3.0 26 ------- null}
- -t 1.0291568 -s 2 -d 3 -p tcp -e 1040 -c 1 -i 31 -a 1 -x {0.0 3.0 19 ------- null}
h -t 1.0291568 -s 2 -d 3 -p tcp -e 1040 -c 1 -i 31 -a 1 -x {0.0 3.0 -1 ------- null}
r -t 1.0291984 -s 0 -d 2 -p tcp -e 1040 -c 1 -i 43 -a 1 -x {0.0 3.0 27 ------- null}
+ -t 1.0291984 -s 2 -d 3 -p tcp -e 1040 -c 1 -i 43 -a 1 -x {0.0 3.0 27 ------- null}
r -t 1.0293248 -s 2 -d 3 -p tcp -e 1040 -c 1 -i 28 -a 1 -x {0.0 3.0 17 ------- null}
+ -t 1.0293248 -s 3 -d 2 -p ack -e 40 -c 1 -i 47 -a 1 -x {3.0 0.0 17 ------- null}
- -t 1.0293248 -s 3 -d 2 -p ack -e 40 -c 1 -i 47 -a 1 -x {3.0 0.0 17 ------- null}
h -t 1.0293248 -s 3 -d 2 -p ack -e 40 -c 1 -i 47 -a 1 -x {3.0 0.0 -1 ------- null}
r -t 1.0295248 -s 3 -d 2 -p ack -e 40 -c 1 -i 44 -a 1 -x {3.0 0.0 16 ------- null}
+ -t 1.0295248 -s 2 -d 0 -p ack -e 40 -c 1 -i 44 -a 1 -x {3.0 0.0 16 ------- null}
- -t 1.0295248 -s 2 -d 0 -p ack -e 40 -c 1 -i 44 -a 1 -x {3.0 0.0 16 ------- null}
h -t 1.0295248 -s 2 -d 0 -p ack -e 40 -c 1 -i 44 -a 1 -x {3.0 0.0 -1 ------- null}
r -t 1.029696 -s 2 -d 0 -p ack -e 40 -c 1 -i 41 -a 1 -x {3.0 0.0 15 ------- null}
+ -t 1.029696 -s 0 -d 2 -p tcp -e 1040 -c 1 -i 48 -a 1 -x {0.0 3.0 30 ------- null}
- -t 1.029696 -s 0 -d 2 -p tcp -e 1040 -c 1 -i 48 -a 1 -x {0.0 3.0 30 ------- null}
h -t 1.029696 -s 0 -d 2 -p tcp -e 1040 -c 1 -i 48 -a 1 -x {0.0 3.0 -1 ------- null}
+ -t 1.029696 -s 0 -d 2 -p tcp -e 1040 -c 1 -i 49 -a 1 -x {0.0 3.0 31 ------- null}
- -t 1.0297792 -s 0 -d 2 -p tcp -e 1040 -c 1 -i 49 -a 1 -x {0.0 3.0 31 ------- null}
h -t 1.0297792 -s 0 -d 2 -p tcp -e 1040 -c 1 -i 49 -a 1 -x {0.0 3.0 -1 ------- null}
r -t 1.0299472 -s 0 -d 2 -p tcp -e 1040 -c 1 -i 45 -a 1 -x {0.0 3.0 28 ------- null}
+ -t 1.0299472 -s 2 -d 3 -p tcp -e 1040 -c 1 -i 45 -a 1 -x {0.0 3.0 28 ------- null}
- -t 1.0299888 -s 2 -d 3 -p tcp -e 1040 -c 1 -i 33 -a 1 -x {0.0 3.0 20 ------- null}
h -t 1.0299888 -s 2 -d 3 -p tcp -e 1040 -c 1 -i 33 -a 1 -x {0.0 3.0 -1 ------- null}
r -t 1.0300304 -s 0 -d 2 -p tcp -e 1040 -c 1 -i 46 -a 1 -x {0.0 3.0 29 ------- null}