V -t * -v 1.0a5 -a 0
A -t * -n 1 -p 0 -o 0x7fffffff -c 30 -a 1
A -t * -h 1 -m 1073741823 -s 0
c -t * -i 1 -n Blue
c -t * -i 2 -n Red
n -t * -a 0 -s 0 -S UP -v circle -c black -i black
n -t * -a 1 -s 1 -S UP -v circle -c black -i black
n -t * -a 2 -s 2 -S UP -v circle -c black -i black
n -t * -a 3 -s 3 -S UP -v circle -c black -i black
l -t * -s 0 -d 2 -S UP -r 100000000 -D 0.001 -c black
l -t * -s 2 -d 3 -S UP -r 10000000 -D 0.001 -c black
l -t * -s 1 -d 2 -S UP -r 10000000 -D 0.001 -c black
q -t * -s 3 -d 2 -a 0.5
q -t * -s 2 -d 3 -a 0.5
+ -t 1 -s 0 -d 2 -p tcp -e 40 -c 1 -i 0 -a 1 -x {0.0 3.0 0 ------- null}
- -t 1 -s 0 -d 2 -p tcp -e 40 -c 1 -i 0 -a 1 -x {0.0 3.0 0 ------- null}
h -t 1 -s 0 -d 2 -p tcp -e 40 -c 1 -i 0 -a 1 -x {0.0 3.0 -1 ------- null}
r -t 1.0010032 -s 0 -d 2 -p tcp -e 40 -c 1 -i 0 -a 1 -x {0.0 3.0 0 ------- null}
+ -t 1.0010032 -s 2 -d 3 -p tcp -e 40 -c 1 -i 0 -a 1 -x {0.0 3.0 0 ------- null}
- -t 1.0010032 -s 2 -d 3 -p tcp -e 40 -c 1 -i 0 -a 1 -x {0.0 3.0 0 ------- null}
h -t 1.0010032 -s 2 -d 3 -p tcp -e 40 -c 1 -i 0 -a 1 -x {0.0 3.0 -1 ------- null}
r -t 1.0020352 -s 2 -d 3 -p tcp -e 40 -c 1 -i 0 -a 1 -x {0.0 3.0 0 ------- null}
+ -t 1.0020352 -s 3 -d 2 -p ack -e 40 -c 1 -i 1 -a 1 -x {3.0 0.0 0 ------- null}
- -t 1.0020352 -s 3 -d 2 -p ack -e 40 -c 1 -i 1 -a 1 -x {3.0 0.0 0 ------- null}
h -t 1.0020352 -s 3 -d 2 -p ack -e 40 -c 1 -i 1 -a 1 -x {3.0 0.0 -1 ------- null}
r -t 1.0030672 -s 3 -d 2 -p ack -e 40 -c 1 -i 1 -a 1 -x {3.0 0.0 0 ------- null}
+ -t 1.0030672 -s 2 -d 0 -p ack -e 40 -c 1 -i 1 -a 1 -x {3.0 0.0 0 ------- null}
- -t 1.0030672 -s 2 -d 0 -p ack -e 40 -c 1 -i 1 -a 1 -x {3.0 0.0 0 ------- null}
h -t 1.0030672 -s 2 -d 0 -p ack -e 40 -c 1 -i 1 -a 1 -x {3.0 0.0 -1 ------- null}
r -t 1.0040704 -s 2 -d 0 -p ack -e 40 -c 1 -i 1 -a 1 -x {3.0 0.0 0 ------- null}
+ -t 1.0040704 -s 0 -d 2 -p tcp -e 1040 -c 1 -i 2 -a 1 -x {0.0 3.0 1 ------- null}
- -t 1.0040704 -s 0 -d 2 -p tcp -e 1040 -c 1 -i 2 -a 1 -x {0.0 3.0 1 ------- null}
h -t 1.0040704 -s 0 -d 2 -p tcp -e 1040 -c 1 -i 2 -a 1 -x {0.0 3.0 -1 ------- null}
+ -t 1.0040704 -s 0 -d 2 -p tcp -e 1040 -c 1 -i 3 -a 1 -x {0.0 3.0 2 ------- null}
- -t 1.0041536 -s 0 -d 2 -p tcp -e 1040 -c 1 -i 3 -a 1 -x {0.0 3.0 2 ------- null}
h -t 1.0041536 -s 0 -d 2 -p tcp -e 1040 -c 1 -i 3 -a 1 -x {0.0 3.0 -1 ------- null}
r -t 1.0051536 -s 0 -d 2 -p tcp -e 1040 -c 1 -i 2 -a 1 -x {0.0 3.0 1 ------- null}
+ -t 1.0051536 -s 2 -d 3 -p tcp -e 1040 -c 1 -i 2 -a 1 -x {0.0 3.0 1 ------- null}
- -t 1.0051536 -s 2 -d 3 -p tcp -e 1040 -c 1 -i 2 -a 1 -x {0.0 3.0 1 ------- null}
h -t 1.0051536 -s 2 -d 3 -p tcp -e 1040 -c 1 -i 2 -a 1 -x {0.0 3.0 -1 ------- null}
r -t 1.0052368 -s 0 -d 2 -p tcp -e 1040 -c 1 -i 3 -a 1 -x {0.0 3.0 2 ------- null}
+ -t 1.0052368 -s 2 -d 3 -p tcp -e 1040 -c 1 -i 3 -a 1 -x {0.0 3.0 2 ------- null}
- -t 1.0059856 -s 2 -d 3 -p tcp -e 1040 -c 1 -i 3 -a 1 -x {0.0 3.0 2 ------- null}
h -t 1.0059856 -s 2 -d 3 -p tcp -e 1040 -c 1 -i 3 -a 1 -x {0.0 3.0 -1 ------- null}
r -t 1.0069856 -s 2 -d 3 -p tcp -e 1040 -c 1 -i 2 -a 1 -x {0.0 3.0 1 ------- null}
+ -t 1.0069856 -s 3 -d 2 -p ack -e 40 -c 1 -i 4 -a 1 -x {3.0 0.0 1 ------- null}
- -t 1.0069856 -s 3 -d 2 -p ack -e 40 -c 1 -i 4 -a 1 -x {3.0 0.0 1 ------- null}
h -t 1.0069856 -s 3 -d 2 -p ack -e 40 -c 1 -i 4 -a 1 -x {3.0 0.0 -1 ------- null}
r -t 1.0078176 -s 2 -d 3 -p tcp -e 1040 -c 1 -i 3 -a 1 -x {0.0 3.0 2 ------- null}
+ -t 1.0078176 -s 3 -d 2 -p ack -e 40 -c 1 -i 5 -a 1 -x {3.0 0.0 2 ------- null}
- -t 1.0078176 -s 3 -d 2 -p ack -e 40 -c 1 -i 5 -a 1 -x {3.0 0.0 2 ------- null}
h -t 1.0078176 -s 3 -d 2 -p ack -e 40 -c 1 -i 5 -a 1 -x {3.0 0.0 -1 ------- null}
r -t 1.0080176 -s 3 -d 2 -p ack -e 40 -c 1 -i 4 -a 1 -x {3.0 0.0 1 ------- null}
+ -t 1.0080176 -s 2 -d 0 -p ack -e 40 -c 1 -i 4 -a 1 -x {3.0 0.0 1 ------- null}
- -t 1.0080176 -s 2 -d 0 -p ack -e 40 -c 1 -i 4 -a 1 -x {3.0 0.0 1 ------- null}
h -t 1.0080176 -s 2 -d 0 -p ack -e 40 -c 1 -i 4 -a 1 -x {3.0 0.0 -1 ------- null}
r -t 1.0088496 -s 3 -d 2 -p ack -e 40 -c 1 -i 5 -a 1 -x {3.0 0.0 2 ------- null}
+ -t 1.0088496 -s 2 -d 0 -p ack -e 40 -c 1 -i 5 -a 1 -x {3.0 0.0 2 ------- null}
- -t 1.0088496 -s 2 -d 0 -p ack -e 40 -c 1 -i 5 -a 1 -x {3.0 0.0 2 ------- null}
h -t 1.0088496 -s 2 -d 0 -p ack -e 40 -c 1 -i 5 -a 1 -x {3.0 0.0 -1 ------- null}
r -t 1.0090208 -s 2 -d 0 -p ack -e 40 -c 1 -i 4 -a 1 -x {3.0 0.0 1 ------- null}
r -t 1.0098528 -s 2 -d 0 -p ack -e 40 -c 1 -i 5 -a 1 -x {3.0 0.0 2 ------- null}
+ -t 1.0098528 -s 0 -d 2 -p tcp -e 1040 -c 1 -i 6 -a 1 -x {0.0 3.0 3 ------- null}
- -t 1.0098528 -s 0 -d 2 -p tcp -e 1040 -c 1 -i 6 -a 1 -x {0.0 3.0 3 ------- null}
h -t 1.0098528 -s 0 -d 2 -p tcp -e 1040 -c 1 -i 6 -a 1 -x {0.0 3.0 -1 ------- null}
r -t 1.010936 -s 0 -d 2 -p tcp -e 1040 -c 1 -i 6 -a 1 -x {0.0 3.0 3 ------- null}
+ -t 1.010936 -s 2 -d 3 -p tcp -e 1040 -c 1 -i 6 -a 1 -x {0.0 3.0 3 ------- null}
- -t 1.010936 -s 2 -d 3 -p tcp -e 1040 -c 1 -i 6 -a 1 -x {0.0 3.0 3 ------- null}
h -t 1.010936 -s 2 -d 3 -p tcp -e 1040 -c 1 -i 6 -a 1 -x {0.0 3.0 -1 ------- null}
r -t 1.012768 -s 2 -d 3 -p tcp -e 1040 -c 1 -i 6 -a 1 -x {0.0 3.0 3 ------- null}
+ -t 1.012768 -s 3 -d 2 -p ack -e 40 -c 1 -i 7 -a 1 -x {3.0 0.0 3 ------- null}
- -t 1.012768 -s 3 -d 2 -p ack -e 40 -c 1 -i 7 -a 1 -x {3.0 0.0 3 ------- null}
h -t 1.012768 -s 3 -d 2 -p ack -e 40 -c 1 -i 7 -a 1 -x {3.0 0.0 -1 ------- null}
r -t 1.0138 -s 3 -d 2 -p ack -e 40 -c 1 -i 7 -a 1 -x {3.0 0.0 3 ------- null}
+ -t 1.0138 -s 2 -d 0 -p ack -e 40 -c 1 -i 7 -a 1 -x {3.0 0.0 3 ------- null}
- -t 1.0138 -s 2 -d 0 -p ack -e 40 -c 1 -i 7 -a 1 -x {3.0 0.0 3 ------- null}
h -t 1.0138 -s 2 -d 0 -p ack -e 40 -c 1 -i 7 -a 1 -x {3.0 0.0 -1 ------- null}
r -t 1.0148032 -s 2 -d 0 -p ack -e 40 -c 1 -i 7 -a 1 -x {3.0 0.0 3 ------- null}
+ -t 1.0148032 -s 0 -d 2 -p tcp -e 1040 -c 1 -i 8 -a 1 -x {0.0 3.0 4 ------- null}
- -t 1.0148032 -s 0 -d 2 -p tcp -e 1040 -c 1 -i 8 -a 1 -x {0.0 3.0 4 ------- null}
h -t 1.0148032 -s 0 -d 2 -p tcp -e 1040 -c 1 -i 8 -a 1 -x {0.0 3.0 -1 ------- null}
r -t 1.0158864 -s 0 -d 2 -p tcp -e 1040 -c 1 -i 8 -a 1 -x {0.0 3.0 4 ------- null}
+ -t 1.0158864 -s 2 -d 3 -p tcp -e 1040 -c 1 -i 8 -a 1 -x {0.0 3.0 4 ------- null}
- -t 1.0158864 -s 2 -d 3 -p tcp -e 1040 -c 1 -i 8 -a 1 -x {0.0 3.0 4 ------- null}
h -t 1.0158864 -s 2 -d 3 -p tcp -e 1040 -c 1 -i 8 -a 1 -x {0.0 3.0 -1 ------- null}
r -t 1.0177184 -s 2 -d 3 -p tcp -e 1040 -c 1 -i 8 -a 1 -x {0.0 3.0 4 ------- null}
+ -t 1.0177184 -s 3 -d 2 -p ack -e 40 -c 1 -i 9 -a 1 -x {3.0 0.0 4 ------- null}
- -t 1.0177184 -s 3 -d 2 -p ack -e 40 -c 1 -i 9 -a 1 -x {3.0 0.0 4 ------- null}
h -t 1.0177184 -s 3 -d 2 -p ack -e 40 -c 1 -i 9 -a 1 -x {3.0 0.0 -1 ------- null}
r -t 1.0187504 -s 3 -d 2 -p ack -e 40 -c 1 -i 9 -a 1 -x {3.0 0.0 4 ------- null}
+ -t 1.0187504 -s 2 -d 0 -p ack -e 40 -c 1 -i 9 -a 1 -x {3.0 0.0 4 ------- null}
- -t 1.0187504 -s 2 -d 0 -p ack -e 40 -c 1 -i 9 -a 1 -x {3.0 0.0 4 ------- null}
h -t 1.0187504 -s 2 -d 0 -p ack -e 40 -c 1 -i 9 -a 1 -x {3.0 0.0 -1 ------- null}
r -t 1.0197536 -s 2 -d 0 -p ack -e 40 -c 1 -i 9 -a 1 -x {3.0 0.0 4 ------- null}
+ -t 1.0197536 -s 0 -d 2 -p tcp -e 1040 -c 1 -i 10 -a 1 -x {0.0 3.0 5 ------- null}
- -t 1.0197536 -s 0 -d 2 -p tcp -e 1040 -c 1 -i 10 -a 1 -x {0.0 3.0 5 ------- null}
h -t 1.0197536 -s 0 -d 2 -p tcp -e 1040 -c 1 -i 10 -a 1 -x {0.0 3.0 -1 ------- null}
r -t 1.0208368 -s 0 -d 2 -p tcp -e 1040 -c 1 -i 10 -a 1 -x {0.0 3.0 5 ------- null}
+ -t 1.0208368 -s 2 -d 3 -p tcp -e 1040 -c 1 -i 10 -a 1 -x {0.0 3.0 5 ------- null}
- -t 1.0208368 -s 2 -d 3 -p tcp -e 1040 -c 1 -i 10 -a 1 -x {0.0 3.0 5 ------- null}
h -t 1.0208368 -s 2 -d 3 -p tcp -e 1040 -c 1 -i 10 -a 1 -x {0.0 3.0 -1 ------- null}
r -t 1.0226688 -s 2 -d 3 -p tcp -e 1040 -c 1 -i 10 -a 1 -x {0.0 3.0 5 ------- null}
+ -t 1.0226688 -s 3 -d 2 -p ack -e 40 -c 1 -i 11 -a 1 -x {3.0 0.0 5 ------- null}
- -t 1.0226688 -s 3 -d 2 -p ack -e 40 -c 1 -i 11 -a 1 -x {3.0 0.0 5 ------- null}
h -t 1.0226688 -s 3 -d 2 -p ack -e 40 -c 1 -i 11 -a 1 -x {3.0 0.0 -1 ------- null}
r -t 1.0237008 -s 3 -d 2 -p ack -e 40 -c 1 -i 11 -a 1 -x {3.0 0.0 5 ------- null}
+ -t 1.0237008 -s 2 -d 0 -p ack -e 40 -c 1 -i 11 -a 1 -x {3.0 0.0 5 ------- null}
- -t 1.0237008 -s 2 -d 0 -p ack -e 40 -c 1 -i 11 -a 1 -x {3.0 0.0 5 ------- null}
h -t 1.0237008 -s 2 -d 0 -p ack -e 40 -c 1 -i 11 -a 1 -x {3.0 0.0 -1 ------- null}
r -t 1.024704 -s 2 -d 0 -p ack -e 40 -c 1 -i 11 -a 1 -x {3.0 0.0 5 ------- null}
+ -t 1.024704 -s 0 -d 2 -p tcp -e 1040 -c 1 -i 12 -a 1 -x {0.0 3.0 6 ------- null}
- -t 1.024704 -s 0 -d 2 -p tcp -e 1040 -c 1 -i 12 -a 1 -x {0.0 3.0 6 ------- null}
h -t 1.024704 -s 0 -d 2 -p tcp -e 1040 -c 1 -i 12 -a 1 -x {0.0 3.0 -1 ------- null}
r -t 1.0257872 -s 0 -d 2 -p tcp -e 1040 -c 1 -i 12 -a 1 -x {0.0 3.0 6 ------- null}
+ -t 1.0257872 -s 2 -d 3 -p tcp -e 1040 -c 1 -i 12 -a 1 -x {0.0 3.0 6 ------- null}
- -t 1.0257872 -s 2 -d 3 -p tcp -e 1040 -c 1 -i 12 -a 1 -x {0.0 3.0 6 ------- null}
h -t 1.0257872 -s 2 -d 3 -p tcp -e 1040 -c 1 -i 12 -a 1 -x {0.0 3.0 -1 ------- null}
r -t 1.0276192 -s 2 -d 3 -p tcp -e 1040 -c 1 -i 12 -a 1 -x {0.0 3.0 6 ------- null}
+ -t 1.0276192 -s 3 -d 2 -p ack -e 40 -c 1 -i 13 -a 1 -x {3.0 0.0 6 ------- null}
- -t 1.0276192 -s 3 -d 2 -p ack -e 40 -c 1 -i 13 -a 1 -x {3.0 0.0 6 ------- null}
h -t 1.0276192 -s 3 -d 2 -p ack -e 40 -c 1 -i 13 -a 1 -x {3.0 0.0 -1 ------- null}
r -t 1.0286512 -s 3 -d 2 -p ack -e 40 -c 1 -i 13 -a 1 -x {3.0 0.0 6 ------- null}
+ -t 1.0286512 -s 2 -d 0 -p ack -e 40 -c 1 -i 13 -a 1 -x {3.0 0.0 6 ------- null}
- -t 1.0286512 -s 2 -d 0 -p ack -e 40 -c 1 -i 13 -a 1 -x {3.0 0.0 6 ------- null}
h -t 1.0286512 -s 2 -d 0 -p ack -e 40 -c 1 -i 13 -a 1 -x {3.0 0.0 -1 ------- null}
r -t 1.0296544 -s 2 -d 0 -p ack -e 40 -c 1 -i 13 -a 1 -x {3.0 0.0 6 ------- null}
+ -t 1.0296544 -s 0 -d 2 -p tcp -e 1040 -c 1 -i 14 -a 1 -x {0.0 3.0 7 ------- null}
- -t 1.0296544 -s 0 -d 2 -p tcp -e 1040 -c 1 -i 14 -a 1 -x {0.0 3.0 7 ------- null}
h -t 1.0296544 -s 0 -d 2 -p tcp -e 1040 -c 1 -i 14 -a 1 -x {0.0 3.0 -1 ------- null}
r -t 1.0307376 -s 0 -d 2 -p tcp -e 1040 -c 1 -i 14 -a 1 -x {0.0 3.0 7 ------- null}
+ -t 1.0307376 -s 2 -d 3 -p tcp -e 1040 -c 1 -i 14 -a 1 -x {0.0 3.0 7 ------- null}
- -t 1.0307376 -s 2 -d 3 -p tcp -e 1040 -c 1 -i 14 -a 1 -x {0.0 3.0 7 ------- null}
h -t 1.0307376 -s 2 -d 3 -p tcp -e 1040 -c 1 -i 14 -a 1 -x {0.0 3.0 -1 ------- null}
r -t 1.0325696 -s 2 -d 3 -p tcp -e 1040 -c 1 -i 14 -a 1 -x {0.0 3.0 7 ------- null}
+ -t 1.0325696 -s 3 -d 2 -p ack -e 40 -c 1 -i 15 -a 1 -x {3.0 0.0 7 ------- null}
- -t 1.0325696 -s 3 -d 2 -p ack -e 40 -c 1 -i 15 -a 1 -x {3.0 0.0 7 ------- null}
h -t 1.0325696 -s 3 -d 2 -p ack -e 40 -c 1 -i 15 -a 1 -x {3.0 0.0 -1 ------- null}
r -t 1.0336016 -s 3 -d 2 -p ack -e 40 -c 1 -i 15 -a 1 -x {3.0 0.0 7 ------- null}
+ -t 1.0336016 -s 2 -d 0 -p ack -e 40 -c 1 -i 15 -a 1 -x {3.0 0.0 7 ------- null}
- -t 1.0336016 -s 2 -d 0 -p ack -e 40 -c 1 -i 15 -a 1 -x {3.0 0.0 7 ------- null}
h -t 1.0336016 -s 2 -d 0 -p ack -e 40 -c 1 -i 15 -a 1 -x {3.0 0.0 -1 ------- null}
r -t 1.0346048 -s 2 -d 0 -p ack -e 40 -c 1 -i 15 -a 1 -x {3.0 0.0 7 ------- null}
+ -t 1.0346048 -s 0 -d 2 -p tcp -e 1040 -c 1 -i 16 -a 1 -x {0.0 3.0 8 ------- null}
- -t 1.0346048 -s 0 -d 2 -p tcp -e 1040 -c 1 -i 16 -a 1 -x {0.0 3.0 8 ------- null}
h -t 1.0346048 -s 0 -d 2 -p tcp -e 1040 -c 1 -i 16 -a 1 -x {0.0 3.0 -1 ------- null}
r -t 1.035688 -s 0 -d 2 -p tcp -e 1040 -c 1 -i 16 -a 1 -x {0.0 3.0 8 ------- null}
+ -t 1.035688 -s 2 -d 3 -p tcp -e 1040 -c 1 -i 16 -a 1 -x {0.0 3.0 8 ------- null}
- -t 1.035688 -s 2 -d 3 -p tcp -e 1040 -c 1 -i 16 -a 1 -x {0.0 3.0 8 ------- null}
h -t 1.035688 -s 2 -d 3 -p tcp -e 1040 -c 1 -i 16 -a 1 -x {0.0 3.0 -1 ------- null}
r -t 1.03752 -s 2 -d 3 -p tcp -e 1040 -c 1 -i 16 -a 1 -x {0.0 3.0 8 ------- null}
+ -t 1.03752 -s 3 -d 2 -p ack -e 40 -c 1 -i 17 -a 1 -x {3.0 0.0 8 ------- null}
- -t 1.03752 -s 3 -d 2 -p ack -e 40 -c 1 -i 17 -a 1 -x {3.0 0.0 8 ------- null}
h -t 1.03752 -s 3 -d 2 -p ack -e 40 -c 1 -i 17 -a 1 -x {3.0 0.0 -1 ------- null}
r -t 1.038552 -s 3 -d 2 -p ack -e 40 -c 1 -i 17 -a 1 -x {3.0 0.0 8 ------- null}
+ -t 1.038552 -s 2 -d 0 -p ack -e 40 -c 1 -i 17 -a 1 -x {3.0 0.0 8 ------- null}
- -t 1.038552 -s 2 -d 0 -p ack -e 40 -c 1 -i 17 -a 1 -x {3.0 0.0 8 ------- null}
h -t 1.038552 -s 2 -d 0 -p ack -e 40 -c 1 -i 17 -a 1 -x {3.0 0.0 -1 ------- null}
r -t 1.0395552 -s 2 -d 0 -p ack -e 40 -c 1 -i 17 -a 1 -x {3.0 0.0 8 ------- null}
+ -t 1.0395552 -s 0 -d 2 -p tcp -e 1040 -c 1 -i 18 -a 1 -x {0.0 3.0 9 ------- null}
- -t 1.0395552 -s 0 -d 2 -p tcp -e 1040 -c 1 -i 18 -a 1 -x {0.0 3.0 9 ------- null}
h -t 1.0395552 -s 0 -d 2 -p tcp -e 1040 -c 1 -i 18 -a 1 -x {0.0 3.0 -1 ------- null}
r -t 1.0406384 -s 0 -d 2 -p tcp -e 1040 -c 1 -i 18 -a 1 -x {0.0 3.0 9 ------- null}
+ -t 1.0406384 -s 2 -d 3 -p tcp -e 1040 -c 1 -i 18 -a 1 -x {0.0 3.0 9 ------- null}
- -t 1.0406384 -s 2 -d 3 -p tcp -e 1040 -c 1 -i 18 -a 1 -x {0.0 3.0 9 ------- null}
h -t 1.0406384 -s 2 -d 3 -p tcp -e 1040 -c 1 -i 18 -a 1 -x {0.0 3.0 -1 ------- null}
r -t 1.0424704 -s 2 -d 3 -p tcp -e 1040 -c 1 -i 18 -a 1 -x {0.0 3.0 9 ------- null}
+ -t 1.0424704 -s 3 -d 2 -p ack -e 40 -c 1 -i 19 -a 1 -x {3.0 0.0 9 ------- null}
- -t 1.0424704 -s 3 -d 2 -p ack -e 40 -c 1 -i 19 -a 1 -x {3.0 0.0 9 ------- null}
h -t 1.0424704 -s 3 -d 2 -p ack -e 40 -c 1 -i 19 -a 1 -x {3.0 0.0 -1 ------- null}
r -t 1.0435024 -s 3 -d 2 -p ack -e 40 -c 1 -i 19 -a 1 -x {3.0 0.0 9 ------- null}
+ -t 1.0435024 -s 2 -d 0 -p ack -e 40 -c 1 -i 19 -a 1 -x {3.0 0.0 9 ------- null}
- -t 1.0435024 -s 2 -d 0 -p ack -e 40 -c 1 -i 19 -a 1 -x {3.0 0.0 9 ------- null}
h -t 1.0435024 -s 2 -d 0 -p ack -e 40 -c 1 -i 19 -a 1 -x {3.0 0.0 -1 ------- null}
r -t 1.0445056 -s 2 -d 0 -p ack -e 40 -c 1 -i 19 -a 1 -x {3.0 0.0 9 ------- null}
+ -t 1.0445056 -s 0 -d 2 -p tcp -e 1040 -c 1 -i 20 -a 1 -x {0.0 3.0 10 ------- null}
- -t 1.0445056 -s 0 -d 2 -p tcp -e 1040 -c 1 -i 20 -a 1 -x {0.0 3.0 10 ------- null}
h -t 1.0445056 -s 0 -d 2 -p tcp -e 1040 -c 1 -i 20 -a 1 -x {0.0 3.0 -1 ------- null}
r -t 1.0455888 -s 0 -d 2 -p tcp -e 1040 -c 1 -i 20 -a 1 -x {0.0 3.0 10 ------- null}
+ -t 1.0455888 -s 2 -d 3 -p tcp -e 1040 -c 1 -i 20 -a 1 -x {0.0 3.0 10 ------- null}
- -t 1.0455888 -s 2 -d 3 -p tcp -e 1040 -c 1 -i 20 -a 1 -x {0.0 3.0 10 ------- null}
h -t 1.0455888 -s 2 -d 3 -p tcp -e 1040 -c 1 -i 20 -a 1 -x {0.0 3.0 -1 ------- null}
r -t 1.0474208 -s 2 -d 3 -p tcp -e 1040 -c 1 -i 20 -a 1 -x {0.0 3.0 10 ------- null}
+ -t 1.0474208 -s 3 -d 2 -p ack -e 40 -c 1 -i 21 -a 1 -x {3.0 0.0 10 ------- null}
- -t 1.0474208 -s 3 -d 2 -p ack -e 40 -c 1 -i 21 -a 1 -x {3.0 0.0 10 ------- null}
h -t 1.0474208 -s 3 -d 2 -p ack -e 40 -c 1 -i 21 -a 1 -x {3.0 0.0 -1 ------- null}
r -t 1.0484528 -s 3 -d 2 -p ack -e 40 -c 1 -i 21 -a 1 -x {3.0 0.0 10 ------- null}
+ -t 1.0484528 -s 2 -d 0 -p ack -e 40 -c 1 -i 21 -a 1 -x {3.0 0.0 10 ------- null}
- -t 1.0484528 -s 2 -d 0 -p ack -e 40 -c 1 -i 21 -a 1 -x {3.0 0.0 10 ------- null}
h -t 1.0484528 -s 2 -d 0 -p ack -e 40 -c 1 -i 21 -a 1 -x {3.0 0.0 -1 ------- null}
r -t 1.049456 -s 2 -d 0 -p ack -e 40 -c 1 -i 21 -a 1 -x {3.0 0.0 10 ------- null}
+ -t 1.049456 -s 0 -d 2 -p tcp -e 1040 -c 1 -i 22 -a 1 -x {0.0 3.0 11 ------- null}
- -t 1.049456 -s 0 -d 2 -p tcp -e 1040 -c 1 -i 22 -a 1 -x {0.0 3.0 11 ------- null}
h -t 1.049456 -s 0 -d 2 -p tcp -e 1040 -c 1 -i 22 -a 1 -x {0.0 3.0 -1 ------- null}
r -t 1.0505392 -s 0 -d 2 -p tcp -e 1040 -c 1 -i 22 -a 1 -x {0.0 3.0 11 ------- null}
+ -t 1.0505392 -s 2 -d 3 -p tcp -e 1040 -c 1 -i 22 -a 1 -x {0.0 3.0 11 ------- null}
- -t 1.0505392 -s 2 -d 3 -p tcp -e 1040 -c 1 -i 22 -a 1 -x {0.0 3.0 11 ------- null}
h -t 1.0505392 -s 2 -d 3 -p tcp -e 1040 -c 1 -i 22 -a 1 -x {0.0 3.0 -1 ------- null}
r -t 1.0523712 -s 2 -d 3 -p tcp -e 1040 -c 1 -i 22 -a 1 -x {0.0 3.0 11 ------- null}
+ -t 1.0523712 -s 3 -d 2 -p ack -e 40 -c 1 -i 23 -a 1 -x {3.0 0.0 11 ------- null}
- -t 1.0523712 -s 3 -d 2 -p ack -e 40 -c 1 -i 23 -a 1 -x {3.0 0.0 11 ------- null}
h -t 1.0523712 -s 3 -d 2 -p ack -e 40 -c 1 -i 23 -a 1 -x {3.0 0.0 -1 ------- null}
r -t 1.0534032 -s 3 -d 2 -p ack -e 40 -c 1 -i 23 -a 1 -x {3.0 0.0 11 ------- null}
+ -t 1.0534032 -s 2 -d 0 -p ack -e 40 -c 1 -i 23 -a 1 -x {3.0 0.0 11 ------- null}
- -t 1.0534032 -s 2 -d 0 -p ack -e 40 -c 1 -i 23 -a 1 -x {3.0 0.0 11 ------- null}
h -t 1.0534032 -s 2 -d 0 -p ack -e 40 -c 1 -i 23 -a 1 -x {3.0 0.0 -1 ------- null}
r -t 1.0544064 -s 2 -d 0 -p ack -e 40 -c 1 -i 23 -a 1 -x {3.0 0.0 11 ------- null}
+ -t 1.0544064 -s 0 -d 2 -p tcp -e 1040 -c 1 -i 24 -a 1 -x {0.0 3.0 12 ------- null}
- -t 1.0544064 -s 0 -d 2 -p tcp -e 1040 -c 1 -i 24 -a 1 -x {0.0 3.0 12 ------- null}
h -t 1.0544064 -s 0 -d 2 -p tcp -e 1040 -c 1 -i 24 -a 1 -x {0.0 3.0 -1 ------- null}
r -t 1.0554896 -s 0 -d 2 -p tcp -e 1040 -c 1 -i 24 -a 1 -x {0.0 3.0 12 ------- null}
+ -t 1.0554896 -s 2 -d 3 -p tcp -e 1040 -c 1 -i 24 -a 1 -x {0.0 3.0 12 ------- null}
- -t 1.0554896 -s 2 -d 3 -p tcp -e 1040 -c 1 -i 24 -a 1 -x {0.0 3.0 12 ------- null}
h -t 1.0554896 -s 2 -d 3 -p tcp -e 1040 -c 1 -i 24 -a 1 -x {0.0 3.0 -1 ------- null}
r -t 1.0573216 -s 2 -d 3 -p tcp -e 1040 -c 1 -i 24 -a 1 -x {0.0 3.0 12 ------- null}
+ -t 1.0573216 -s 3 -d 2 -p ack -e 40 -c 1 -i 25 -a 1 -x {3.0 0.0 12 ------- null}
- -t 1.0573216 -s 3 -d 2 -p ack -e 40 -c 1 -i 25 -a 1 -x {3.0 0.0 12 ------- null}
h -t 1.0573216 -s 3 -d 2 -p ack -e 40 -c 1 -i 25 -a 1 -x {3.0 0.0 -1 ------- null}
r -t 1.0583536 -s 3 -d 2 -p ack -e 40 -c 1 -i 25 -a 1 -x {3.0 0.0 12 ------- null}
+ -t 1.0583536 -s 2 -d 0 -p ack -e 40 -c 1 -i 25 -a 1 -x {3.0 0.0 12 ------- null}
- -t 1.0583536 -s 2 -d 0 -p ack -e 40 -c 1 -i 25 -a 1 -x {3.0 0.0 12 ------- null}
h -t 1.0583536 -s 2 -d 0 -p ack -e 40 -c 1 -i 25 -a 1 -x {3.0 0.0 -1 ------- null}
r -t 1.0593568 -s 2 -d 0 -p ack -e 40 -c 1 -i 25 -a 1 -x {3.0 0.0 12 ------- null}
+ -t 1.0593568 -s 0 -d 2 -p tcp -e 1040 -c 1 -i 26 -a 1 -x {0.0 3.0 13 ------- null}
- -t 1.0593568 -s 0 -d 2 -p tcp -e 1040 -c 1 -i 26 -a 1 -x {0.0 3.0 13 ------- null}
h -t 1.0593568 -s 0 -d 2 -p tcp -e 1040 -c 1 -i 26 -a 1 -x {0.0 3.0 -1 ------- null}
r -t 1.06044 -s 0 -d 2 -p tcp -e 1040 -c 1 -i 26 -a 1 -x {0.0 3.0 13 ------- null}
+ -t 1.06044 -s 2 -d 3 -p tcp -e 1040 -c 1 -i 26 -a 1 -x {0.0 3.0 13 ------- null}
- -t 1.06044 -s 2 -d 3 -p tcp -e 1040 -c 1 -i 26 -a 1 -x {0.0 3.0 13 ------- null}
h -t 1.06044 -s 2 -d 3 -p tcp -e 1040 -c 1 -i 26 -a 1 -x {0.0 3.0 -1 ------- null}
r -t 1.062272 -s 2 -d 3 -p tcp -e 1040 -c 1 -i 26 -a 1 -x {0.0 3.0 13 ------- null}
+ -t 1.062272 -s 3 -d 2 -p ack -e 40 -c 1 -i 27 -a 1 -x {3.0 0.0 13 ------- null}
- -t 1.062272 -s 3 -d 2 -p ack -e 40 -c 1 -i 27 -a 1 -x {3.0 0.0 13 ------- null}
h -t 1.062272 -s 3 -d 2 -p ack -e 40 -c 1 -i 27 -a 1 -x {3.0 0.0 -1 ------- null}
r -t 1.063304 -s 3 -d 2 -p ack -e 40 -c 1 -i 27 -a 1 -x {3.0 0.0 13 ------- null}
+ -t 1.063304 -s 2 -d 0 -p ack -e 40 -c 1 -i 27 -a 1 -x {3.0 0.0 13 ------- null}
- -t 1.063304 -s 2 -d 0 -p ack -e 40 -c 1 -i 27 -a 1 -x {3.0 0.0 13 ------- null}
h -t 1.063304 -s 2 -d 0 -p ack -e 40 -c 1 -i 27 -a 1 -x {3.0 0.0 -1 ------- null}
r -t 1.0643072 -s 2 -d 0 -p ack -e 40 -c 1 -i 27 -a 1 -x {3.0 0.0 13 ------- null}
+ -t 1.0643072 -s 0 -d 2 -p tcp -e 1040 -c 1 -i 28 -a 1 -x {0.0 3.0 14 ------- null}
- -t 1.0643072 -s 0 -d 2 -p tcp -e 1040 -c 1 -i 28 -a 1 -x {0.0 3.0 14 ------- null}
h -t 1.0643072 -s 0 -d 2 -p tcp -e 1040 -c 1 -i 28 -a 1 -x {0.0 3.0 -1 ------- null}
r -t 1.0653904 -s 0 -d 2 -p tcp -e 1040 -c 1 -i 28 -a 1 -x {0.0 3.0 14 ------- null}
+ -t 1.0653904 -s 2 -d 3 -p tcp -e 1040 -c 1 -i 28 -a 1 -x {0.0 3.0 14 ------- null}
- -t 1.0653904 -s 2 -d 3 -p tcp -e 1040 -c 1 -i 28 -a 1 -x {0.0 3.0 14 ------- null}
h -t 1.0653904 -s 2 -d 3 -p tcp -e 1040 -c 1 -i 28 -a 1 -x {0.0 3.0 -1 ------- null}
r -t 1.0672224 -s 2 -d 3 -p tcp -e 1040 -c 1 -i 28 -a 1 -x {0.0 3.0 14 ------- null}
+ -t 1.0672224 -s 3 -d 2 -p ack -e 40 -c 1 -i 29 -a 1 -x {3.0 0.0 14 ------- null}
- -t 1.0672224 -s 3 -d 2 -p ack -e 40 -c 1 -i 29 -a 1 -x {3.0 0.0 14 ------- null}
h -t 1.0672224 -s 3 -d 2 -p ack -e 40 -c 1 -i 29 -a 1 -x {3.0 0.0 -1 ------- null}
r -t 1.0682544 -s 3 -d 2 -p ack -e 40 -c 1 -i 29 -a 1 -x {3.0 0.0 14 ------- null}
+ -t 1.0682544 -s 2 -d 0 -p ack -e 40 -c 1 -i 29 -a 1 -x {3.0 0.0 14 ------- null}
- -t 1.0682544 -s 2 -d 0 -p ack -e 40 -c 1 -i 29 -a 1 -x {3.0 0.0 14 ------- null}
h -t 1.0682544 -s 2 -d 0 -p ack -e 40 -c 1 -i 29 -a 1 -x {3.0 0.0 -1 ------- null}
r -t 1.0692576 -s 2 -d 0 -p ack -e 40 -c 1 -i 29 -a 1 -x {3.0 0.0 14 ------- null}
+ -t 1.0692576 -s 0 -d 2 -p tcp -e 1040 -c 1 -i 30 -a 1 -x {0.0 3.0 15 ------- null}
- -t 1.0692576 -s 0 -d 2 -p tcp -e 1040 -c 1 -i 30 -a 1 -x {0.0 3.0 15 ------- null}
h -t 1.0692576 -s 0 -d 2 -p tcp -e 1040 -c 1 -i 30 -a 1 -x {0.0 3.0 -1 ------- null}
r -t 1.0703408 -s 0 -d 2 -p tcp -e 1040 -c 1 -i 30 -a 1 -x {0.0 3.0 15 ------- null}
+ -t 1.0703408 -s 2 -d 3 -p tcp -e 1040 -c 1 -i 30 -a 1 -x {0.0 3.0 15 ------- null}
- -t 1.0703408 -s 2 -d 3 -p tcp -e 1040 -c 1 -i 30 -a 1 -x {0.0 3.0 15 ------- null}
h -t 1.0703408 -s 2 -d 3 -p tcp -e 1040 -c 1 -i 30 -a 1 -x {0.0 3.0 -1 ------- null}
r -t 1.0721728 -s 2 -d 3 -p tcp -e 1040 -c 1 -i 30 -a 1 -x {0.0 3.0 15 ------- null}
+ -t 1.0721728 -s 3 -d 2 -p ack -e 40 -c 1 -i 31 -a 1 -x {3.0 0.0 15 ------- null}
- -t 1.0721728 -s 3 -d 2 -p ack -e 40 -c 1 -i 31 -a 1 -x {3.0 0.0 15 ------- null}
h -t 1.0721728 -s 3 -d 2 -p ack -e 40 -c 1 -i 31 -a 1 -x {3.0 0.0 -1 ------- null}
r -t 1.0732048 -s 3 -d 2 -p ack -e 40 -c 1 -i 31 -a 1 -x {3.0 0.0 15 ------- null}
+ -t 1.0732048 -s 2 -d 0 -p ack -e 40 -c 1 -i 31 -a 1 -x {3.0 0.0 15 ------- null}
- -t 1.0732048 -s 2 -d 0 -p ack -e 40 -c 1 -i 31 -a 1 -x {3.0 0.0 15 ------- null}
h -t 1.0732048 -s 2 -d 0 -p ack -e 40 -c 1 -i 31 -a 1 -x {3.0 0.0 -1 ------- null}
r -t 1.074208 -s 2 -d 0 -p ack -e 40 -c 1 -i 31 -a 1 -x {3.0 0.0 15 ------- null}
+ -t 1.074208 -s 0 -d 2 -p tcp -e 1040 -c 1 -i 32 -a 1 -x {0.0 3.0 16 ------- null}
- -t 1.074208 -s 0 -d 2 -p tcp -e 1040 -c 1 -i 32 -a 1 -x {0.0 3.0 16 ------- null}
h -t 1.074208 -s 0 -d 2 -p tcp -e 1040 -c 1 -i 32 -a 1 -x {0.0 3.0 -1 ------- null}
r -t 1.0752912 -s 0 -d 2 -p tcp -e 1040 -c 1 -i 32 -a 1 -x {0.0 3.0 16 ------- null}
+ -t 1.0752912 -s 2 -d 3 -p tcp -e 1040 -c 1 -i 32 -a 1 -x {0.0 3.0 16 ------- null}
- -t 1.0752912 -s 2 -d 3 -p tcp -e 1040 -c 1 -i 32 -a 1 -x {0.0 3.0 16 ------- null}
h -t 1.0752912 -s 2 -d 3 -p tcp -e 1040 -c 1 -i 32 -a 1 -x {0.0 3.0 -1 ------- null}
r -t 1.0771232 -s 2 -d 3 -p tcp -e 1040 -c 1 -i 32 -a 1 -x {0.0 3.0 16 ------- null}
+ -t 1.0771232 -s 3 -d 2 -p ack -e 40 -c 1 -i 33 -a 1 -x {3.0 0.0 16 ------- null}
- -t 1.0771232 -s 3 -d 2 -p ack -e 40 -c 1 -i 33 -a 1 -x {3.0 0.0 16 ------- null}
h -t 1.0771232 -s 3 -d 2 -p ack -e 40 -c 1 -i 33 -a 1 -x {3.0 0.0 -1 ------- null}
r -t 1.0781552 -s 3 -d 2 -p ack -e 40 -c 1 -i 33 -a 1 -x {3.0 0.0 16 ------- null}
+ -t 1.0781552 -s 2 -d 0 -p ack -e 40 -c 1 -i 33 -a 1 -x {3.0 0.0 16 ------- null}
- -t 1.0781552 -s 2 -d 0 -p ack -e 40 -c 1 -i 33 -a 1 -x {3.0 0.0 16 ------- null}
h -t 1.0781552 -s 2 -d 0 -p ack -e 40 -c 1 -i 33 -a 1 -x {3.0 0.0 -1 ------- null}
r -t 1.0791584 -s 2 -d 0 -p ack -e 40 -c 1 -i 33 -a 1 -x {3.0 0.0 16 ------- null}
+ -t 1.0791584 -s 0 -d 2 -p tcp -e 1040 -c 1 -i 34 -a 1 -x {0.0 3.0 17 ------- null}
- -t 1.0791584 -s 0 -d 2 -p tcp -e 1040 -c 1 -i 34 -a 1 -x {0.0 3.0 17 ------- null}
h -t 1.0791584 -s 0 -d 2 -p tcp -e 1040 -c 1 -i 34 -a 1 -x {0.0 3.0 -1 ------- null}
r -t 1.0802416 -s 0 -d 2 -p tcp -e 1040 -c 1 -i 34 -a 1 -x {0.0 3.0 17 ------- null}
+ -t 1.0802416 -s 2 -d 3 -p tcp -e 1040 -c 1 -i 34 -a 1 -x {0.0 3.0 17 ------- null}
- -t 1.0802416 -s 2 -d 3 -p tcp -e 1040 -c 1 -i 34 -a 1 -x {0.0 3.0 17 ------- null}
h -t 1.0802416 -s 2 -d 3 -p tcp -e 1040 -c 1 -i 34 -a 1 -x {0.0 3.0 -1 ------- null}
r -t 1.0820736 -s 2 -d 3 -p tcp -e 1040 -c 1 -i 34 -a 1 -x {0.0 3.0 17 ------- null}
+ -t 1.0820736 -s 3 -d 2 -p ack -e 40 -c 1 -i 35 -a 1 -x {3.0 0.0 17 ------- null}
- -t 1.0820736 -s 3 -d 2 -p ack -e 40 -c 1 -i 35 -a 1 -x {3.0 0.0 17 ------- null}
h -t 1.0820736 -s 3 -d 2 -p ack -e 40 -c 1 -i 35 -a 1 -x {3.0 0.0 -1 ------- null}
r -t 1.0831056 -s 3 -d 2 -p ack -e 40 -c 1 -i 35 -a 1 -x {3.0 0.0 17 ------- null}
+ -t 1.0831056 -s 2 -d 0 -p ack -e 40 -c 1 -i 35 -a 1 -x {3.0 0.0 17 ------- null}
- -t 1.0831056 -s 2 -d 0 -p ack -e 40 -c 1 -i 35 -a 1 -x {3.0 0.0 17 ------- null}
h -t 1.0831056 -s 2 -d 0 -p ack -e 40 -c 1 -i 35 -a 1 -x {3.0 0.0 -1 ------- null}
r -t 1.0841088 -s 2 -d 0 -p ack -e 40 -c 1 -i 35 -a 1 -x {3.0 0.0 17 ------- null}
+ -t 1.0841088 -s 0 -d 2 -p tcp -e 1040 -c 1 -i 36 -a 1 -x {0.0 3.0 18 ------- null}
- -t 1.0841088 -s 0 -d 2 -p tcp -e 1040 -c 1 -i 36 -a 1 -x {0.0 3.0 18 ------- null}
h -t 1.0841088 -s 0 -d 2 -p tcp -e 1040 -c 1 -i 36 -a 1 -x {0.0 3.0 -1 ------- null}
r -t 1.085192 -s 0 -d 2 -p tcp -e 1040 -c 1 -i 36 -a 1 -x {0.0 3.0 18 ------- null}
+ -t 1.085192 -s 2 -d 3 -p tcp -e 1040 -c 1 -i 36 -a 1 -x {0.0 3.0 18 ------- null}
- -t 1.085192 -s 2 -d 3 -p tcp -e 1040 -c 1 -i 36 -a 1 -x {0.0 3.0 18 ------- null}
h -t 1.085192 -s 2 -d 3 -p tcp -e 1040 -c 1 -i 36 -a 1 -x {0.0 3.0 -1 ------- null}
r -t 1.087024 -s 2 -d 3 -p tcp -e 1040 -c 1 -i 36 -a 1 -x {0.0 3.0 18 ------- null}
+ -t 1.087024 -s 3 -d 2 -p ack -e 40 -c 1 -i 37 -a 1 -x {3.0 0.0 18 ------- null}
- -t 1.087024 -s 3 -d 2 -p ack -e 40 -c 1 -i 37 -a 1 -x {3.0 0.0 18 ------- null}
h -t 1.087024 -s 3 -d 2 -p ack -e 40 -c 1 -i 37 -a 1 -x {3.0 0.0 -1 ------- null}
r -t 1.088056 -s 3 -d 2 -p ack -e 40 -c 1 -i 37 -a 1 -x {3.0 0.0 18 ------- null}
+ -t 1.088056 -s 2 -d 0 -p ack -e 40 -c 1 -i 37 -a 1 -x {3.0 0.0 18 ------- null}
- -t 1.088056 -s 2 -d 0 -p ack -e 40 -c 1 -i 37 -a 1 -x {3.0 0.0 18 ------- null}
h -t 1.088056 -s 2 -d 0 -p ack -e 40 -c 1 -i 37 -a 1 -x {3.0 0.0 -1 ------- null}
r -t 1.0890592 -s 2 -d 0 -p ack -e 40 -c 1 -i 37 -a 1 -x {3.0 0.0 18 ------- null}
+ -t 1.0890592 -s 0 -d 2 -p tcp -e 1040 -c 1 -i 38 -a 1 -x {0.0 3.0 19 ------- null}
- -t 1.0890592 -s 0 -d 2 -p tcp -e 1040 -c 1 -i 38 -a 1 -x {0.0 3.0 19 ------- null}
h -t 1.0890592 -s 0 -d 2 -p tcp -e 1040 -c 1 -i 38 -a 1 -x {0.0 3.0 -1 ------- null}
r -t 1.0901424 -s 0 -d 2 -p tcp -e 1040 -c 1 -i 38 -a 1 -x {0.0 3.0 19 ------- null}
+ -t 1.0901424 -s 2 -d 3 -p tcp -e 1040 -c 1 -i 38 -a 1 -x {0.0 3.0 19 ------- null}
- -t 1.0901424 -s 2 -d 3 -p tcp -e 1040 -c 1 -i 38 -a 1 -x {0.0 3.0 19 ------- null}
h -t 1.0901424 -s 2 -d 3 -p tcp -e 1040 -c 1 -i 38 -a 1 -x {0.0 3.0 -1 ------- null}
r -t 1.0919744 -s 2 -d 3 -p tcp -e 1040 -c 1 -i 38 -a 1 -x {0.0 3.0 19 ------- null}
+ -t 1.0919744 -s 3 -d 2 -p ack -e 40 -c 1 -i 39 -a 1 -x {3.0 0.0 19 ------- null}
- -t 1.0919744 -s 3 -d 2 -p ack -e 40 -c 1 -i 39 -a 1 -x {3.0 0.0 19 ------- null}
h -t 1.0919744 -s 3 -d 2 -p ack -e 40 -c 1 -i 39 -a 1 -x {3.0 0.0 -1 ------- null}
r -t 1.0930064 -s 3 -d 2 -p ack -e 40 -c 1 -i 39 -a 1 -x {3.0 0.0 19 ------- null}
+ -t 1.0930064 -s 2 -d 0 -p ack -e 40 -c 1 -i 39 -a 1 -x {3.0 0.0 19 ------- null}
- -t 1.0930064 -s 2 -d 0 -p ack -e 40 -c 1 -i 39 -a 1 -x {3.0 0.0 19 ------- null}
h -t 1.0930064 -s 2 -d 0 -p ack -e 40 -c 1 -i 39 -a 1 -x {3.0 0.0 -1 ------- null}
r -t 1.0940096 -s 2 -d 0 -p ack -e 40 -c 1 -i 39 -a 1 -x {3.0 0.0 19 ------- null}
+ -t 1.0940096 -s 0 -d 2 -p tcp -e 1040 -c 1 -i 40 -a 1 -x {0.0 3.0 20 ------- null}
- -t 1.0940096 -s 0 -d 2 -p tcp -e 1040 -c 1 -i 40 -a 1 -x {0.0 3.0 20 ------- null}
h -t 1.0940096 -s 0 -d 2 -p tcp -e 1040 -c 1 -i 40 -a 1 -x {0.0 3.0 -1 ------- null}
r -t 1.0950928 -s 0 -d 2 -p tcp -e 1040 -c 1 -i 40 -a 1 -x {0.0 3.0 20 ------- null}
+ -t 1.0950928 -s 2 -d 3 -p tcp -e 1040 -c 1 -i 40 -a 1 -x {0.0 3.0 20 ------- null}
- -t 1.0950928 -s 2 -d 3 -p tcp -e 1040 -c 1 -i 40 -a 1 -x {0.0 3.0 20 ------- null}
h -t 1.0950928 -s 2 -d 3 -p tcp -e 1040 -c 1 -i 40 -a 1 -x {0.0 3.0 -1 ------- null}
r -t 1.0969248 -s 2 -d 3 -p tcp -e 1040 -c 1 -i 40 -a 1 -x {0.0 3.0 20 ------- null}
+ -t 1.0969248 -s 3 -d 2 -p ack -e 40 -c 1 -i 41 -a 1 -x {3.0 0.0 20 ------- null}
- -t 1.0969248 -s 3 -d 2 -p ack -e 40 -c 1 -i 41 -a 1 -x {3.0 0.0 20 ------- null}
h -t 1.0969248 -s 3 -d 2 -p ack -e 40 -c 1 -i 41 -a 1 -x {3.0 0.0 -1 ------- null}
r -t 1.0979568 -s 3 -d 2 -p ack -e 40 -c 1 -i 41 -a 1 -x {3.0 0.0 20 ------- null}
+ -t 1.0979568 -s 2 -d 0 -p ack -e 40 -c 1 -i 41 -a 1 -x {3.0 0.0 20 ------- null}
- -t 1.0979568 -s 2 -d 0 -p ack -e 40 -c 1 -i 41 -a 1 -x {3.0 0.0 20 ------- null}
h -t 1.0979568 -s 2 -d 0 -p ack -e 40 -c 1 -i 41 -a 1 -x {3.0 0.0 -1 ------- null}
r -t 1.09896 -s 2 -d 0 -p ack -e 40 -c 1 -i 41 -a 1 -x {3.0 0.0 20 ------- null}
+ -t 1.09896 -s 0 -d 2 -p tcp -e 1040 -c 1 -i 42 -a 1 -x {0.0 3.0 21 ------- null}
- -t 1.09896 -s 0 -d 2 -p tcp -e 1040 -c 1 -i 42 -a 1 -x {0.0 3.0 21 ------- null}
h -t 1.09896 -s 0 -d 2 -p tcp -e 1040 -c 1 -i 42 -a 1 -x {0.0 3.0 -1 ------- null}
r -t 1.1000432 -s 0 -d 2 -p tcp -e 1040 -c 1 -i 42 -a 1 -x {0.0 3.0 21 ------- null}
+ -t 1.1000432 -s 2 -d 3 -p tcp -e 1040 -c 1 -i 42 -a 1 -x {0.0 3.0 21 ------- null}
- -t 1.1000432 -s 2 -d 3 -p tcp -e 1040 -c 1 -i 42 -a 1 -x {0.0 3.0 21 ------- null}
h -t 1.1000432 -s 2 -d 3 -p tcp -e 1040 -c 1 -i 42 -a 1 -x {0.0 3.0 -1 ------- null}
r -t 1.1018752 -s 2 -d 3 -p tcp -e 1040 -c 1 -i 42 -a 1 -x {0.0 3.0 21 ------- null}
+ -t 1.1018752 -s 3 -d 2 -p ack -e 40 -c 1 -i 43 -a 1 -x {3.0 0.0 21 ------- null}
- -t 1.1018752 -s 3 -d 2 -p ack -e 40 -c 1 -i 43 -a 1 -x {3.0 0.0 21 ------- null}
h -t 1.1018752 -s 3 -d 2 -p ack -e 40 -c 1 -i 43 -a 1 -x {3.0 0.0 -1 ------- null}
r -t 1.1029072 -s 3 -d 2 -p ack -e 40 -c 1 -i 43 -a 1 -x {3.0 0.0 21 ------- null}
+ -t 1.1029072 -s 2 -d 0 -p ack -e 40 -c 1 -i 43 -a 1 -x {3.0 0.0 21 ------- null}
- -t 1.1029072 -s 2 -d 0 -p ack -e 40 -c 1 -i 43 -a 1 -x {3.0 0.0 21 ------- null}
h -t 1.1029072 -s 2 -d 0 -p ack -e 40 -c 1 -i 43 -a 1 -x {3.0 0.0 -1 ------- null}
r -t 1.1039104 -s 2 -d 0 -p ack -e 40 -c 1 -i 43 -a 1 -x {3.0 0.0 21 ------- null}
+ -t 1.1039104 -s 0 -d 2 -p tcp -e 1040 -c 1 -i 44 -a 1 -x {0.0 3.0 22 ------- null}
- -t 1.1039104 -s 0 -d 2 -p tcp -e 1040 -c 1 -i 44 -a 1 -x {0.0 3.0 22 ------- null}