V -t * -v 1.0a5 -a 0
A -t * -n 1 -p 0 -o 0x7fffffff -c 30 -a 1
A -t * -h 1 -m 1073741823 -s 0
n -t * -a 0 -s 0 -S UP -v circle -c black -i black
n -t * -a 1 -s 1 -S UP -v circle -c black -i black
l -t * -s 0 -d 1 -S UP -r 100000000 -D 0.0001 -c black
+ -t 0 -s 0 -d 1 -p tcp -e 40 -c 0 -i 0 -a 0 -x {0.0 1.0 0 ------- null}
- -t 0 -s 0 -d 1 -p tcp -e 40 -c 0 -i 0 -a 0 -x {0.0 1.0 0 ------- null}
h -t 0 -s 0 -d 1 -p tcp -e 40 -c 0 -i 0 -a 0 -x {0.0 1.0 -1 ------- null}
r -t 0.0001032 -s 0 -d 1 -p tcp -e 40 -c 0 -i 0 -a 0 -x {0.0 1.0 0 ------- null}
+ -t 0.0001032 -s 1 -d 0 -p ack -e 40 -c 0 -i 1 -a 0 -x {1.0 0.0 0 ------- null}
- -t 0.0001032 -s 1 -d 0 -p ack -e 40 -c 0 -i 1 -a 0 -x {1.0 0.0 0 ------- null}
h -t 0.0001032 -s 1 -d 0 -p ack -e 40 -c 0 -i 1 -a 0 -x {1.0 0.0 -1 ------- null}
r -t 0.0002064 -s 1 -d 0 -p ack -e 40 -c 0 -i 1 -a 0 -x {1.0 0.0 0 ------- null}
+ -t 0.0002064 -s 0 -d 1 -p tcp -e 1040 -c 0 -i 2 -a 0 -x {0.0 1.0 1 ------- null}
- -t 0.0002064 -s 0 -d 1 -p tcp -e 1040 -c 0 -i 2 -a 0 -x {0.0 1.0 1 ------- null}
h -t 0.0002064 -s 0 -d 1 -p tcp -e 1040 -c 0 -i 2 -a 0 -x {0.0 1.0 -1 ------- null}
+ -t 0.0002064 -s 0 -d 1 -p tcp -e 1040 -c 0 -i 3 -a 0 -x {0.0 1.0 2 ------- null}
- -t 0.0002896 -s 0 -d 1 -p tcp -e 1040 -c 0 -i 3 -a 0 -x {0.0 1.0 2 ------- null}
h -t 0.0002896 -s 0 -d 1 -p tcp -e 1040 -c 0 -i 3 -a 0 -x {0.0 1.0 -1 ------- null}
r -t 0.0003896 -s 0 -d 1 -p tcp -e 1040 -c 0 -i 2 -a 0 -x {0.0 1.0 1 ------- null}
+ -t 0.0003896 -s 1 -d 0 -p ack -e 40 -c 0 -i 4 -a 0 -x {1.0 0.0 1 ------- null}
- -t 0.0003896 -s 1 -d 0 -p ack -e 40 -c 0 -i 4 -a 0 -x {1.0 0.0 1 ------- null}
h -t 0.0003896 -s 1 -d 0 -p ack -e 40 -c 0 -i 4 -a 0 -x {1.0 0.0 -1 ------- null}
r -t 0.0004728 -s 0 -d 1 -p tcp -e 1040 -c 0 -i 3 -a 0 -x {0.0 1.0 2 ------- null}
+ -t 0.0004728 -s 1 -d 0 -p ack -e 40 -c 0 -i 5 -a 0 -x {1.0 0.0 2 ------- null}
- -t 0.0004728 -s 1 -d 0 -p ack -e 40 -c 0 -i 5 -a 0 -x {1.0 0.0 2 ------- null}
h -t 0.0004728 -s 1 -d 0 -p ack -e 40 -c 0 -i 5 -a 0 -x {1.0 0.0 -1 ------- null}
r -t 0.0004928 -s 1 -d 0 -p ack -e 40 -c 0 -i 4 -a 0 -x {1.0 0.0 1 ------- null}
r -t 0.000576 -s 1 -d 0 -p ack -e 40 -c 0 -i 5 -a 0 -x {1.0 0.0 2 ------- null}
+ -t 0.200576 -s 0 -d 1 -p tcp -e 1040 -c 0 -i 6 -a 0 -x {0.0 1.0 3 ---A--- null}
- -t 0.200576 -s 0 -d 1 -p tcp -e 1040 -c 0 -i 6 -a 0 -x {0.0 1.0 3 ---A--- null}
h -t 0.200576 -s 0 -d 1 -p tcp -e 1040 -c 0 -i 6 -a 0 -x {0.0 1.0 -1 ---A--- null}
r -t 0.2007592 -s 0 -d 1 -p tcp -e 1040 -c 0 -i 6 -a 0 -x {0.0 1.0 3 ---A--- null}
+ -t 0.2007592 -s 1 -d 0 -p ack -e 40 -c 0 -i 7 -a 0 -x {1.0 0.0 3 ------- null}
- -t 0.2007592 -s 1 -d 0 -p ack -e 40 -c 0 -i 7 -a 0 -x {1.0 0.0 3 ------- null}
h -t 0.2007592 -s 1 -d 0 -p ack -e 40 -c 0 -i 7 -a 0 -x {1.0 0.0 -1 ------- null}
r -t 0.2008624 -s 1 -d 0 -p ack -e 40 -c 0 -i 7 -a 0 -x {1.0 0.0 3 ------- null}
+ -t 0.4008624 -s 0 -d 1 -p tcp -e 1040 -c 0 -i 8 -a 0 -x {0.0 1.0 4 ---A--- null}
- -t 0.4008624 -s 0 -d 1 -p tcp -e 1040 -c 0 -i 8 -a 0 -x {0.0 1.0 4 ---A--- null}
h -t 0.4008624 -s 0 -d 1 -p tcp -e 1040 -c 0 -i 8 -a 0 -x {0.0 1.0 -1 ---A--- null}
r -t 0.4010456 -s 0 -d 1 -p tcp -e 1040 -c 0 -i 8 -a 0 -x {0.0 1.0 4 ---A--- null}
+ -t 0.4010456 -s 1 -d 0 -p ack -e 40 -c 0 -i 9 -a 0 -x {1.0 0.0 4 ------- null}
- -t 0.4010456 -s 1 -d 0 -p ack -e 40 -c 0 -i 9 -a 0 -x {1.0 0.0 4 ------- null}
h -t 0.4010456 -s 1 -d 0 -p ack -e 40 -c 0 -i 9 -a 0 -x {1.0 0.0 -1 ------- null}
r -t 0.4011488 -s 1 -d 0 -p ack -e 40 -c 0 -i 9 -a 0 -x {1.0 0.0 4 ------- null}
+ -t 0.6011488 -s 0 -d 1 -p tcp -e 1040 -c 0 -i 10 -a 0 -x {0.0 1.0 5 ---A--- null}
- -t 0.6011488 -s 0 -d 1 -p tcp -e 1040 -c 0 -i 10 -a 0 -x {0.0 1.0 5 ---A--- null}
h -t 0.6011488 -s 0 -d 1 -p tcp -e 1040 -c 0 -i 10 -a 0 -x {0.0 1.0 -1 ---A--- null}
r -t 0.601332 -s 0 -d 1 -p tcp -e 1040 -c 0 -i 10 -a 0 -x {0.0 1.0 5 ---A--- null}
+ -t 0.601332 -s 1 -d 0 -p ack -e 40 -c 0 -i 11 -a 0 -x {1.0 0.0 5 ------- null}
- -t 0.601332 -s 1 -d 0 -p ack -e 40 -c 0 -i 11 -a 0 -x {1.0 0.0 5 ------- null}
h -t 0.601332 -s 1 -d 0 -p ack -e 40 -c 0 -i 11 -a 0 -x {1.0 0.0 -1 ------- null}
r -t 0.6014352 -s 1 -d 0 -p ack -e 40 -c 0 -i 11 -a 0 -x {1.0 0.0 5 ------- null}
+ -t 0.8014352 -s 0 -d 1 -p tcp -e 1040 -c 0 -i 12 -a 0 -x {0.0 1.0 6 ---A--- null}
- -t 0.8014352 -s 0 -d 1 -p tcp -e 1040 -c 0 -i 12 -a 0 -x {0.0 1.0 6 ---A--- null}
h -t 0.8014352 -s 0 -d 1 -p tcp -e 1040 -c 0 -i 12 -a 0 -x {0.0 1.0 -1 ---A--- null}
r -t 0.8016184 -s 0 -d 1 -p tcp -e 1040 -c 0 -i 12 -a 0 -x {0.0 1.0 6 ---A--- null}
+ -t 0.8016184 -s 1 -d 0 -p ack -e 40 -c 0 -i 13 -a 0 -x {1.0 0.0 6 ------- null}
- -t 0.8016184 -s 1 -d 0 -p ack -e 40 -c 0 -i 13 -a 0 -x {1.0 0.0 6 ------- null}
h -t 0.8016184 -s 1 -d 0 -p ack -e 40 -c 0 -i 13 -a 0 -x {1.0 0.0 -1 ------- null}
r -t 0.8017216 -s 1 -d 0 -p ack -e 40 -c 0 -i 13 -a 0 -x {1.0 0.0 6 ------- null}
+ -t 1.0017216 -s 0 -d 1 -p tcp -e 1040 -c 0 -i 14 -a 0 -x {0.0 1.0 7 ---A--- null}
- -t 1.0017216 -s 0 -d 1 -p tcp -e 1040 -c 0 -i 14 -a 0 -x {0.0 1.0 7 ---A--- null}
h -t 1.0017216 -s 0 -d 1 -p tcp -e 1040 -c 0 -i 14 -a 0 -x {0.0 1.0 -1 ---A--- null}
r -t 1.0019048 -s 0 -d 1 -p tcp -e 1040 -c 0 -i 14 -a 0 -x {0.0 1.0 7 ---A--- null}
+ -t 1.0019048 -s 1 -d 0 -p ack -e 40 -c 0 -i 15 -a 0 -x {1.0 0.0 7 ------- null}
- -t 1.0019048 -s 1 -d 0 -p ack -e 40 -c 0 -i 15 -a 0 -x {1.0 0.0 7 ------- null}
h -t 1.0019048 -s 1 -d 0 -p ack -e 40 -c 0 -i 15 -a 0 -x {1.0 0.0 -1 ------- null}
r -t 1.002008 -s 1 -d 0 -p ack -e 40 -c 0 -i 15 -a 0 -x {1.0 0.0 7 ------- null}
+ -t 1.202008 -s 0 -d 1 -p tcp -e 1040 -c 0 -i 16 -a 0 -x {0.0 1.0 8 ---A--- null}
- -t 1.202008 -s 0 -d 1 -p tcp -e 1040 -c 0 -i 16 -a 0 -x {0.0 1.0 8 ---A--- null}
h -t 1.202008 -s 0 -d 1 -p tcp -e 1040 -c 0 -i 16 -a 0 -x {0.0 1.0 -1 ---A--- null}
r -t 1.2021912 -s 0 -d 1 -p tcp -e 1040 -c 0 -i 16 -a 0 -x {0.0 1.0 8 ---A--- null}
+ -t 1.2021912 -s 1 -d 0 -p ack -e 40 -c 0 -i 17 -a 0 -x {1.0 0.0 8 ------- null}
- -t 1.2021912 -s 1 -d 0 -p ack -e 40 -c 0 -i 17 -a 0 -x {1.0 0.0 8 ------- null}
h -t 1.2021912 -s 1 -d 0 -p ack -e 40 -c 0 -i 17 -a 0 -x {1.0 0.0 -1 ------- null}
r -t 1.2022944 -s 1 -d 0 -p ack -e 40 -c 0 -i 17 -a 0 -x {1.0 0.0 8 ------- null}
+ -t 1.4022944 -s 0 -d 1 -p tcp -e 1040 -c 0 -i 18 -a 0 -x {0.0 1.0 9 ---A--- null}
- -t 1.4022944 -s 0 -d 1 -p tcp -e 1040 -c 0 -i 18 -a 0 -x {0.0 1.0 9 ---A--- null}
h -t 1.4022944 -s 0 -d 1 -p tcp -e 1040 -c 0 -i 18 -a 0 -x {0.0 1.0 -1 ---A--- null}
r -t 1.4024776 -s 0 -d 1 -p tcp -e 1040 -c 0 -i 18 -a 0 -x {0.0 1.0 9 ---A--- null}
+ -t 1.4024776 -s 1 -d 0 -p ack -e 40 -c 0 -i 19 -a 0 -x {1.0 0.0 9 ------- null}
- -t 1.4024776 -s 1 -d 0 -p ack -e 40 -c 0 -i 19 -a 0 -x {1.0 0.0 9 ------- null}
h -t 1.4024776 -s 1 -d 0 -p ack -e 40 -c 0 -i 19 -a 0 -x {1.0 0.0 -1 ------- null}
r -t 1.4025808 -s 1 -d 0 -p ack -e 40 -c 0 -i 19 -a 0 -x {1.0 0.0 9 ------- null}
+ -t 1.6025808 -s 0 -d 1 -p tcp -e 1040 -c 0 -i 20 -a 0 -x {0.0 1.0 10 ---A--- null}
- -t 1.6025808 -s 0 -d 1 -p tcp -e 1040 -c 0 -i 20 -a 0 -x {0.0 1.0 10 ---A--- null}
h -t 1.6025808 -s 0 -d 1 -p tcp -e 1040 -c 0 -i 20 -a 0 -x {0.0 1.0 -1 ---A--- null}
r -t 1.602764 -s 0 -d 1 -p tcp -e 1040 -c 0 -i 20 -a 0 -x {0.0 1.0 10 ---A--- null}
+ -t 1.602764 -s 1 -d 0 -p ack -e 40 -c 0 -i 21 -a 0 -x {1.0 0.0 10 ------- null}
- -t 1.602764 -s 1 -d 0 -p ack -e 40 -c 0 -i 21 -a 0 -x {1.0 0.0 10 ------- null}
h -t 1.602764 -s 1 -d 0 -p ack -e 40 -c 0 -i 21 -a 0 -x {1.0 0.0 -1 ------- null}
r -t 1.6028672 -s 1 -d 0 -p ack -e 40 -c 0 -i 21 -a 0 -x {1.0 0.0 10 ------- null}
+ -t 1.8028672 -s 0 -d 1 -p tcp -e 1040 -c 0 -i 22 -a 0 -x {0.0 1.0 11 ---A--- null}
- -t 1.8028672 -s 0 -d 1 -p tcp -e 1040 -c 0 -i 22 -a 0 -x {0.0 1.0 11 ---A--- null}
h -t 1.8028672 -s 0 -d 1 -p tcp -e 1040 -c 0 -i 22 -a 0 -x {0.0 1.0 -1 ---A--- null}
r -t 1.8030504 -s 0 -d 1 -p tcp -e 1040 -c 0 -i 22 -a 0 -x {0.0 1.0 11 ---A--- null}
+ -t 1.8030504 -s 1 -d 0 -p ack -e 40 -c 0 -i 23 -a 0 -x {1.0 0.0 11 ------- null}
- -t 1.8030504 -s 1 -d 0 -p ack -e 40 -c 0 -i 23 -a 0 -x {1.0 0.0 11 ------- null}
h -t 1.8030504 -s 1 -d 0 -p ack -e 40 -c 0 -i 23 -a 0 -x {1.0 0.0 -1 ------- null}
r -t 1.8031536 -s 1 -d 0 -p ack -e 40 -c 0 -i 23 -a 0 -x {1.0 0.0 11 ------- null}
+ -t 2.0031536 -s 0 -d 1 -p tcp -e 1040 -c 0 -i 24 -a 0 -x {0.0 1.0 12 ---A--- null}
- -t 2.0031536 -s 0 -d 1 -p tcp -e 1040 -c 0 -i 24 -a 0 -x {0.0 1.0 12 ---A--- null}
h -t 2.0031536 -s 0 -d 1 -p tcp -e 1040 -c 0 -i 24 -a 0 -x {0.0 1.0 -1 ---A--- null}
r -t 2.0033368 -s 0 -d 1 -p tcp -e 1040 -c 0 -i 24 -a 0 -x {0.0 1.0 12 ---A--- null}
+ -t 2.0033368 -s 1 -d 0 -p ack -e 40 -c 0 -i 25 -a 0 -x {1.0 0.0 12 ------- null}
- -t 2.0033368 -s 1 -d 0 -p ack -e 40 -c 0 -i 25 -a 0 -x {1.0 0.0 12 ------- null}
h -t 2.0033368 -s 1 -d 0 -p ack -e 40 -c 0 -i 25 -a 0 -x {1.0 0.0 -1 ------- null}
r -t 2.00344 -s 1 -d 0 -p ack -e 40 -c 0 -i 25 -a 0 -x {1.0 0.0 12 ------- null}
+ -t 2.20344 -s 0 -d 1 -p tcp -e 1040 -c 0 -i 26 -a 0 -x {0.0 1.0 13 ---A--- null}
- -t 2.20344 -s 0 -d 1 -p tcp -e 1040 -c 0 -i 26 -a 0 -x {0.0 1.0 13 ---A--- null}
h -t 2.20344 -s 0 -d 1 -p tcp -e 1040 -c 0 -i 26 -a 0 -x {0.0 1.0 -1 ---A--- null}
r -t 2.2036232 -s 0 -d 1 -p tcp -e 1040 -c 0 -i 26 -a 0 -x {0.0 1.0 13 ---A--- null}
+ -t 2.2036232 -s 1 -d 0 -p ack -e 40 -c 0 -i 27 -a 0 -x {1.0 0.0 13 ------- null}
- -t 2.2036232 -s 1 -d 0 -p ack -e 40 -c 0 -i 27 -a 0 -x {1.0 0.0 13 ------- null}
h -t 2.2036232 -s 1 -d 0 -p ack -e 40 -c 0 -i 27 -a 0 -x {1.0 0.0 -1 ------- null}
r -t 2.2037264 -s 1 -d 0 -p ack -e 40 -c 0 -i 27 -a 0 -x {1.0 0.0 13 ------- null}
+ -t 2.4037264 -s 0 -d 1 -p tcp -e 1040 -c 0 -i 28 -a 0 -x {0.0 1.0 14 ---A--- null}
- -t 2.4037264 -s 0 -d 1 -p tcp -e 1040 -c 0 -i 28 -a 0 -x {0.0 1.0 14 ---A--- null}
h -t 2.4037264 -s 0 -d 1 -p tcp -e 1040 -c 0 -i 28 -a 0 -x {0.0 1.0 -1 ---A--- null}
r -t 2.4039096 -s 0 -d 1 -p tcp -e 1040 -c 0 -i 28 -a 0 -x {0.0 1.0 14 ---A--- null}
+ -t 2.4039096 -s 1 -d 0 -p ack -e 40 -c 0 -i 29 -a 0 -x {1.0 0.0 14 ------- null}
- -t 2.4039096 -s 1 -d 0 -p ack -e 40 -c 0 -i 29 -a 0 -x {1.0 0.0 14 ------- null}
h -t 2.4039096 -s 1 -d 0 -p ack -e 40 -c 0 -i 29 -a 0 -x {1.0 0.0 -1 ------- null}
r -t 2.4040128 -s 1 -d 0 -p ack -e 40 -c 0 -i 29 -a 0 -x {1.0 0.0 14 ------- null}
+ -t 2.6040128 -s 0 -d 1 -p tcp -e 1040 -c 0 -i 30 -a 0 -x {0.0 1.0 15 ---A--- null}
- -t 2.6040128 -s 0 -d 1 -p tcp -e 1040 -c 0 -i 30 -a 0 -x {0.0 1.0 15 ---A--- null}
h -t 2.6040128 -s 0 -d 1 -p tcp -e 1040 -c 0 -i 30 -a 0 -x {0.0 1.0 -1 ---A--- null}
r -t 2.604196 -s 0 -d 1 -p tcp -e 1040 -c 0 -i 30 -a 0 -x {0.0 1.0 15 ---A--- null}
+ -t 2.604196 -s 1 -d 0 -p ack -e 40 -c 0 -i 31 -a 0 -x {1.0 0.0 15 ------- null}
- -t 2.604196 -s 1 -d 0 -p ack -e 40 -c 0 -i 31 -a 0 -x {1.0 0.0 15 ------- null}
h -t 2.604196 -s 1 -d 0 -p ack -e 40 -c 0 -i 31 -a 0 -x {1.0 0.0 -1 ------- null}
r -t 2.6042992 -s 1 -d 0 -p ack -e 40 -c 0 -i 31 -a 0 -x {1.0 0.0 15 ------- null}
+ -t 2.8042992 -s 0 -d 1 -p tcp -e 1040 -c 0 -i 32 -a 0 -x {0.0 1.0 16 ---A--- null}
- -t 2.8042992 -s 0 -d 1 -p tcp -e 1040 -c 0 -i 32 -a 0 -x {0.0 1.0 16 ---A--- null}
h -t 2.8042992 -s 0 -d 1 -p tcp -e 1040 -c 0 -i 32 -a 0 -x {0.0 1.0 -1 ---A--- null}
r -t 2.8044824 -s 0 -d 1 -p tcp -e 1040 -c 0 -i 32 -a 0 -x {0.0 1.0 16 ---A--- null}
+ -t 2.8044824 -s 1 -d 0 -p ack -e 40 -c 0 -i 33 -a 0 -x {1.0 0.0 16 ------- null}
- -t 2.8044824 -s 1 -d 0 -p ack -e 40 -c 0 -i 33 -a 0 -x {1.0 0.0 16 ------- null}
h -t 2.8044824 -s 1 -d 0 -p ack -e 40 -c 0 -i 33 -a 0 -x {1.0 0.0 -1 ------- null}
r -t 2.8045856 -s 1 -d 0 -p ack -e 40 -c 0 -i 33 -a 0 -x {1.0 0.0 16 ------- null}
+ -t 3.0045856 -s 0 -d 1 -p tcp -e 1040 -c 0 -i 34 -a 0 -x {0.0 1.0 17 ---A--- null}
- -t 3.0045856 -s 0 -d 1 -p tcp -e 1040 -c 0 -i 34 -a 0 -x {0.0 1.0 17 ---A--- null}
h -t 3.0045856 -s 0 -d 1 -p tcp -e 1040 -c 0 -i 34 -a 0 -x {0.0 1.0 -1 ---A--- null}
r -t 3.0047688 -s 0 -d 1 -p tcp -e 1040 -c 0 -i 34 -a 0 -x {0.0 1.0 17 ---A--- null}
+ -t 3.0047688 -s 1 -d 0 -p ack -e 40 -c 0 -i 35 -a 0 -x {1.0 0.0 17 ------- null}
- -t 3.0047688 -s 1 -d 0 -p ack -e 40 -c 0 -i 35 -a 0 -x {1.0 0.0 17 ------- null}
h -t 3.0047688 -s 1 -d 0 -p ack -e 40 -c 0 -i 35 -a 0 -x {1.0 0.0 -1 ------- null}
r -t 3.004872 -s 1 -d 0 -p ack -e 40 -c 0 -i 35 -a 0 -x {1.0 0.0 17 ------- null}
+ -t 3.204872 -s 0 -d 1 -p tcp -e 1040 -c 0 -i 36 -a 0 -x {0.0 1.0 18 ---A--- null}
- -t 3.204872 -s 0 -d 1 -p tcp -e 1040 -c 0 -i 36 -a 0 -x {0.0 1.0 18 ---A--- null}
h -t 3.204872 -s 0 -d 1 -p tcp -e 1040 -c 0 -i 36 -a 0 -x {0.0 1.0 -1 ---A--- null}
r -t 3.2050552 -s 0 -d 1 -p tcp -e 1040 -c 0 -i 36 -a 0 -x {0.0 1.0 18 ---A--- null}
+ -t 3.2050552 -s 1 -d 0 -p ack -e 40 -c 0 -i 37 -a 0 -x {1.0 0.0 18 ------- null}
- -t 3.2050552 -s 1 -d 0 -p ack -e 40 -c 0 -i 37 -a 0 -x {1.0 0.0 18 ------- null}
h -t 3.2050552 -s 1 -d 0 -p ack -e 40 -c 0 -i 37 -a 0 -x {1.0 0.0 -1 ------- null}
r -t 3.2051584 -s 1 -d 0 -p ack -e 40 -c 0 -i 37 -a 0 -x {1.0 0.0 18 ------- null}
+ -t 3.4051584 -s 0 -d 1 -p tcp -e 1040 -c 0 -i 38 -a 0 -x {0.0 1.0 19 ---A--- null}
- -t 3.4051584 -s 0 -d 1 -p tcp -e 1040 -c 0 -i 38 -a 0 -x {0.0 1.0 19 ---A--- null}
h -t 3.4051584 -s 0 -d 1 -p tcp -e 1040 -c 0 -i 38 -a 0 -x {0.0 1.0 -1 ---A--- null}
r -t 3.4053416 -s 0 -d 1 -p tcp -e 1040 -c 0 -i 38 -a 0 -x {0.0 1.0 19 ---A--- null}
+ -t 3.4053416 -s 1 -d 0 -p ack -e 40 -c 0 -i 39 -a 0 -x {1.0 0.0 19 ------- null}
- -t 3.4053416 -s 1 -d 0 -p ack -e 40 -c 0 -i 39 -a 0 -x {1.0 0.0 19 ------- null}
h -t 3.4053416 -s 1 -d 0 -p ack -e 40 -c 0 -i 39 -a 0 -x {1.0 0.0 -1 ------- null}
r -t 3.4054448 -s 1 -d 0 -p ack -e 40 -c 0 -i 39 -a 0 -x {1.0 0.0 19 ------- null}
+ -t 3.6054448 -s 0 -d 1 -p tcp -e 1040 -c 0 -i 40 -a 0 -x {0.0 1.0 20 ---A--- null}
- -t 3.6054448 -s 0 -d 1 -p tcp -e 1040 -c 0 -i 40 -a 0 -x {0.0 1.0 20 ---A--- null}
h -t 3.6054448 -s 0 -d 1 -p tcp -e 1040 -c 0 -i 40 -a 0 -x {0.0 1.0 -1 ---A--- null}
r -t 3.605628 -s 0 -d 1 -p tcp -e 1040 -c 0 -i 40 -a 0 -x {0.0 1.0 20 ---A--- null}
+ -t 3.605628 -s 1 -d 0 -p ack -e 40 -c 0 -i 41 -a 0 -x {1.0 0.0 20 ------- null}
- -t 3.605628 -s 1 -d 0 -p ack -e 40 -c 0 -i 41 -a 0 -x {1.0 0.0 20 ------- null}
h -t 3.605628 -s 1 -d 0 -p ack -e 40 -c 0 -i 41 -a 0 -x {1.0 0.0 -1 ------- null}
r -t 3.6057312 -s 1 -d 0 -p ack -e 40 -c 0 -i 41 -a 0 -x {1.0 0.0 20 ------- null}
+ -t 3.8057312 -s 0 -d 1 -p tcp -e 1040 -c 0 -i 42 -a 0 -x {0.0 1.0 21 ---A--- null}
- -t 3.8057312 -s 0 -d 1 -p tcp -e 1040 -c 0 -i 42 -a 0 -x {0.0 1.0 21 ---A--- null}
h -t 3.8057312 -s 0 -d 1 -p tcp -e 1040 -c 0 -i 42 -a 0 -x {0.0 1.0 -1 ---A--- null}
r -t 3.8059144 -s 0 -d 1 -p tcp -e 1040 -c 0 -i 42 -a 0 -x {0.0 1.0 21 ---A--- null}
+ -t 3.8059144 -s 1 -d 0 -p ack -e 40 -c 0 -i 43 -a 0 -x {1.0 0.0 21 ------- null}
- -t 3.8059144 -s 1 -d 0 -p ack -e 40 -c 0 -i 43 -a 0 -x {1.0 0.0 21 ------- null}
h -t 3.8059144 -s 1 -d 0 -p ack -e 40 -c 0 -i 43 -a 0 -x {1.0 0.0 -1 ------- null}
r -t 3.8060176 -s 1 -d 0 -p ack -e 40 -c 0 -i 43 -a 0 -x {1.0 0.0 21 ------- null}
+ -t 4.0060176 -s 0 -d 1 -p tcp -e 1040 -c 0 -i 44 -a 0 -x {0.0 1.0 22 ---A--- null}
- -t 4.0060176 -s 0 -d 1 -p tcp -e 1040 -c 0 -i 44 -a 0 -x {0.0 1.0 22 ---A--- null}
h -t 4.0060176 -s 0 -d 1 -p tcp -e 1040 -c 0 -i 44 -a 0 -x {0.0 1.0 -1 ---A--- null}
r -t 4.0062008 -s 0 -d 1 -p tcp -e 1040 -c 0 -i 44 -a 0 -x {0.0 1.0 22 ---A--- null}
+ -t 4.0062008 -s 1 -d 0 -p ack -e 40 -c 0 -i 45 -a 0 -x {1.0 0.0 22 ------- null}
- -t 4.0062008 -s 1 -d 0 -p ack -e 40 -c 0 -i 45 -a 0 -x {1.0 0.0 22 ------- null}
h -t 4.0062008 -s 1 -d 0 -p ack -e 40 -c 0 -i 45 -a 0 -x {1.0 0.0 -1 ------- null}
r -t 4.006304 -s 1 -d 0 -p ack -e 40 -c 0 -i 45 -a 0 -x {1.0 0.0 22 ------- null}
+ -t 4.206304 -s 0 -d 1 -p tcp -e 1040 -c 0 -i 46 -a 0 -x {0.0 1.0 23 ---A--- null}
- -t 4.206304 -s 0 -d 1 -p tcp -e 1040 -c 0 -i 46 -a 0 -x {0.0 1.0 23 ---A--- null}
h -t 4.206304 -s 0 -d 1 -p tcp -e 1040 -c 0 -i 46 -a 0 -x {0.0 1.0 -1 ---A--- null}
r -t 4.2064872 -s 0 -d 1 -p tcp -e 1040 -c 0 -i 46 -a 0 -x {0.0 1.0 23 ---A--- null}
+ -t 4.2064872 -s 1 -d 0 -p ack -e 40 -c 0 -i 47 -a 0 -x {1.0 0.0 23 ------- null}
- -t 4.2064872 -s 1 -d 0 -p ack -e 40 -c 0 -i 47 -a 0 -x {1.0 0.0 23 ------- null}
h -t 4.2064872 -s 1 -d 0 -p ack -e 40 -c 0 -i 47 -a 0 -x {1.0 0.0 -1 ------- null}
r -t 4.2065904 -s 1 -d 0 -p ack -e 40 -c 0 -i 47 -a 0 -x {1.0 0.0 23 ------- null}
+ -t 4.4065904 -s 0 -d 1 -p tcp -e 1040 -c 0 -i 48 -a 0 -x {0.0 1.0 24 ---A--- null}
- -t 4.4065904 -s 0 -d 1 -p tcp -e 1040 -c 0 -i 48 -a 0 -x {0.0 1.0 24 ---A--- null}
h -t 4.4065904 -s 0 -d 1 -p tcp -e 1040 -c 0 -i 48 -a 0 -x {0.0 1.0 -1 ---A--- null}
r -t 4.4067736 -s 0 -d 1 -p tcp -e 1040 -c 0 -i 48 -a 0 -x {0.0 1.0 24 ---A--- null}
+ -t 4.4067736 -s 1 -d 0 -p ack -e 40 -c 0 -i 49 -a 0 -x {1.0 0.0 24 ------- null}
- -t 4.4067736 -s 1 -d 0 -p ack -e 40 -c 0 -i 49 -a 0 -x {1.0 0.0 24 ------- null}
h -t 4.4067736 -s 1 -d 0 -p ack -e 40 -c 0 -i 49 -a 0 -x {1.0 0.0 -1 ------- null}
r -t 4.4068768 -s 1 -d 0 -p ack -e 40 -c 0 -i 49 -a 0 -x {1.0 0.0 24 ------- null}
+ -t 4.6068768 -s 0 -d 1 -p tcp -e 1040 -c 0 -i 50 -a 0 -x {0.0 1.0 25 ---A--- null}
- -t 4.6068768 -s 0 -d 1 -p tcp -e 1040 -c 0 -i 50 -a 0 -x {0.0 1.0 25 ---A--- null}
h -t 4.6068768 -s 0 -d 1 -p tcp -e 1040 -c 0 -i 50 -a 0 -x {0.0 1.0 -1 ---A--- null}
r -t 4.60706 -s 0 -d 1 -p tcp -e 1040 -c 0 -i 50 -a 0 -x {0.0 1.0 25 ---A--- null}
+ -t 4.60706 -s 1 -d 0 -p ack -e 40 -c 0 -i 51 -a 0 -x {1.0 0.0 25 ------- null}
- -t 4.60706 -s 1 -d 0 -p ack -e 40 -c 0 -i 51 -a 0 -x {1.0 0.0 25 ------- null}
h -t 4.60706 -s 1 -d 0 -p ack -e 40 -c 0 -i 51 -a 0 -x {1.0 0.0 -1 ------- null}
r -t 4.6071632 -s 1 -d 0 -p ack -e 40 -c 0 -i 51 -a 0 -x {1.0 0.0 25 ------- null}
+ -t 4.8071632 -s 0 -d 1 -p tcp -e 1040 -c 0 -i 52 -a 0 -x {0.0 1.0 26 ---A--- null}
- -t 4.8071632 -s 0 -d 1 -p tcp -e 1040 -c 0 -i 52 -a 0 -x {0.0 1.0 26 ---A--- null}
h -t 4.8071632 -s 0 -d 1 -p tcp -e 1040 -c 0 -i 52 -a 0 -x {0.0 1.0 -1 ---A--- null}
r -t 4.8073464 -s 0 -d 1 -p tcp -e 1040 -c 0 -i 52 -a 0 -x {0.0 1.0 26 ---A--- null}
+ -t 4.8073464 -s 1 -d 0 -p ack -e 40 -c 0 -i 53 -a 0 -x {1.0 0.0 26 ------- null}
- -t 4.8073464 -s 1 -d 0 -p ack -e 40 -c 0 -i 53 -a 0 -x {1.0 0.0 26 ------- null}
h -t 4.8073464 -s 1 -d 0 -p ack -e 40 -c 0 -i 53 -a 0 -x {1.0 0.0 -1 ------- null}
r -t 4.8074496 -s 1 -d 0 -p ack -e 40 -c 0 -i 53 -a 0 -x {1.0 0.0 26 ------- null}
+ -t 5.0074496 -s 0 -d 1 -p tcp -e 1040 -c 0 -i 54 -a 0 -x {0.0 1.0 27 ---A--- null}
- -t 5.0074496 -s 0 -d 1 -p tcp -e 1040 -c 0 -i 54 -a 0 -x {0.0 1.0 27 ---A--- null}
h -t 5.0074496 -s 0 -d 1 -p tcp -e 1040 -c 0 -i 54 -a 0 -x {0.0 1.0 -1 ---A--- null}
r -t 5.0076328 -s 0 -d 1 -p tcp -e 1040 -c 0 -i 54 -a 0 -x {0.0 1.0 27 ---A--- null}
+ -t 5.0076328 -s 1 -d 0 -p ack -e 40 -c 0 -i 55 -a 0 -x {1.0 0.0 27 ------- null}
- -t 5.0076328 -s 1 -d 0 -p ack -e 40 -c 0 -i 55 -a 0 -x {1.0 0.0 27 ------- null}
h -t 5.0076328 -s 1 -d 0 -p ack -e 40 -c 0 -i 55 -a 0 -x {1.0 0.0 -1 ------- null}
r -t 5.007736 -s 1 -d 0 -p ack -e 40 -c 0 -i 55 -a 0 -x {1.0 0.0 27 ------- null}
+ -t 5.207736 -s 0 -d 1 -p tcp -e 1040 -c 0 -i 56 -a 0 -x {0.0 1.0 28 ---A--- null}
- -t 5.207736 -s 0 -d 1 -p tcp -e 1040 -c 0 -i 56 -a 0 -x {0.0 1.0 28 ---A--- null}
h -t 5.207736 -s 0 -d 1 -p tcp -e 1040 -c 0 -i 56 -a 0 -x {0.0 1.0 -1 ---A--- null}
r -t 5.2079192 -s 0 -d 1 -p tcp -e 1040 -c 0 -i 56 -a 0 -x {0.0 1.0 28 ---A--- null}
+ -t 5.2079192 -s 1 -d 0 -p ack -e 40 -c 0 -i 57 -a 0 -x {1.0 0.0 28 ------- null}
- -t 5.2079192 -s 1 -d 0 -p ack -e 40 -c 0 -i 57 -a 0 -x {1.0 0.0 28 ------- null}
h -t 5.2079192 -s 1 -d 0 -p ack -e 40 -c 0 -i 57 -a 0 -x {1.0 0.0 -1 ------- null}
r -t 5.2080224 -s 1 -d 0 -p ack -e 40 -c 0 -i 57 -a 0 -x {1.0 0.0 28 ------- null}
+ -t 5.4080224 -s 0 -d 1 -p tcp -e 1040 -c 0 -i 58 -a 0 -x {0.0 1.0 29 ---A--- null}
- -t 5.4080224 -s 0 -d 1 -p tcp -e 1040 -c 0 -i 58 -a 0 -x {0.0 1.0 29 ---A--- null}
h -t 5.4080224 -s 0 -d 1 -p tcp -e 1040 -c 0 -i 58 -a 0 -x {0.0 1.0 -1 ---A--- null}
r -t 5.4082056 -s 0 -d 1 -p tcp -e 1040 -c 0 -i 58 -a 0 -x {0.0 1.0 29 ---A--- null}
+ -t 5.4082056 -s 1 -d 0 -p ack -e 40 -c 0 -i 59 -a 0 -x {1.0 0.0 29 ------- null}
- -t 5.4082056 -s 1 -d 0 -p ack -e 40 -c 0 -i 59 -a 0 -x {1.0 0.0 29 ------- null}
h -t 5.4082056 -s 1 -d 0 -p ack -e 40 -c 0 -i 59 -a 0 -x {1.0 0.0 -1 ------- null}
r -t 5.4083088 -s 1 -d 0 -p ack -e 40 -c 0 -i 59 -a 0 -x {1.0 0.0 29 ------- null}
+ -t 5.6083088 -s 0 -d 1 -p tcp -e 1040 -c 0 -i 60 -a 0 -x {0.0 1.0 30 ---A--- null}
- -t 5.6083088 -s 0 -d 1 -p tcp -e 1040 -c 0 -i 60 -a 0 -x {0.0 1.0 30 ---A--- null}
h -t 5.6083088 -s 0 -d 1 -p tcp -e 1040 -c 0 -i 60 -a 0 -x {0.0 1.0 -1 ---A--- null}
r -t 5.608492 -s 0 -d 1 -p tcp -e 1040 -c 0 -i 60 -a 0 -x {0.0 1.0 30 ---A--- null}
+ -t 5.608492 -s 1 -d 0 -p ack -e 40 -c 0 -i 61 -a 0 -x {1.0 0.0 30 ------- null}
- -t 5.608492 -s 1 -d 0 -p ack -e 40 -c 0 -i 61 -a 0 -x {1.0 0.0 30 ------- null}
h -t 5.608492 -s 1 -d 0 -p ack -e 40 -c 0 -i 61 -a 0 -x {1.0 0.0 -1 ------- null}
r -t 5.6085952 -s 1 -d 0 -p ack -e 40 -c 0 -i 61 -a 0 -x {1.0 0.0 30 ------- null}
+ -t 5.8085952 -s 0 -d 1 -p tcp -e 1040 -c 0 -i 62 -a 0 -x {0.0 1.0 31 ---A--- null}
- -t 5.8085952 -s 0 -d 1 -p tcp -e 1040 -c 0 -i 62 -a 0 -x {0.0 1.0 31 ---A--- null}
h -t 5.8085952 -s 0 -d 1 -p tcp -e 1040 -c 0 -i 62 -a 0 -x {0.0 1.0 -1 ---A--- null}
r -t 5.8087784 -s 0 -d 1 -p tcp -e 1040 -c 0 -i 62 -a 0 -x {0.0 1.0 31 ---A--- null}
+ -t 5.8087784 -s 1 -d 0 -p ack -e 40 -c 0 -i 63 -a 0 -x {1.0 0.0 31 ------- null}
- -t 5.8087784 -s 1 -d 0 -p ack -e 40 -c 0 -i 63 -a 0 -x {1.0 0.0 31 ------- null}
h -t 5.8087784 -s 1 -d 0 -p ack -e 40 -c 0 -i 63 -a 0 -x {1.0 0.0 -1 ------- null}
r -t 5.8088816 -s 1 -d 0 -p ack -e 40 -c 0 -i 63 -a 0 -x {1.0 0.0 31 ------- null}
+ -t 6.0088816 -s 0 -d 1 -p tcp -e 1040 -c 0 -i 64 -a 0 -x {0.0 1.0 32 ---A--- null}
- -t 6.0088816 -s 0 -d 1 -p tcp -e 1040 -c 0 -i 64 -a 0 -x {0.0 1.0 32 ---A--- null}
h -t 6.0088816 -s 0 -d 1 -p tcp -e 1040 -c 0 -i 64 -a 0 -x {0.0 1.0 -1 ---A--- null}
r -t 6.0090648 -s 0 -d 1 -p tcp -e 1040 -c 0 -i 64 -a 0 -x {0.0 1.0 32 ---A--- null}
+ -t 6.0090648 -s 1 -d 0 -p ack -e 40 -c 0 -i 65 -a 0 -x {1.0 0.0 32 ------- null}
- -t 6.0090648 -s 1 -d 0 -p ack -e 40 -c 0 -i 65 -a 0 -x {1.0 0.0 32 ------- null}
h -t 6.0090648 -s 1 -d 0 -p ack -e 40 -c 0 -i 65 -a 0 -x {1.0 0.0 -1 ------- null}
r -t 6.009168 -s 1 -d 0 -p ack -e 40 -c 0 -i 65 -a 0 -x {1.0 0.0 32 ------- null}
+ -t 6.209168 -s 0 -d 1 -p tcp -e 1040 -c 0 -i 66 -a 0 -x {0.0 1.0 33 ---A--- null}
- -t 6.209168 -s 0 -d 1 -p tcp -e 1040 -c 0 -i 66 -a 0 -x {0.0 1.0 33 ---A--- null}
h -t 6.209168 -s 0 -d 1 -p tcp -e 1040 -c 0 -i 66 -a 0 -x {0.0 1.0 -1 ---A--- null}
r -t 6.2093512 -s 0 -d 1 -p tcp -e 1040 -c 0 -i 66 -a 0 -x {0.0 1.0 33 ---A--- null}
+ -t 6.2093512 -s 1 -d 0 -p ack -e 40 -c 0 -i 67 -a 0 -x {1.0 0.0 33 ------- null}
- -t 6.2093512 -s 1 -d 0 -p ack -e 40 -c 0 -i 67 -a 0 -x {1.0 0.0 33 ------- null}
h -t 6.2093512 -s 1 -d 0 -p ack -e 40 -c 0 -i 67 -a 0 -x {1.0 0.0 -1 ------- null}
r -t 6.2094544 -s 1 -d 0 -p ack -e 40 -c 0 -i 67 -a 0 -x {1.0 0.0 33 ------- null}
+ -t 6.4094544 -s 0 -d 1 -p tcp -e 1040 -c 0 -i 68 -a 0 -x {0.0 1.0 34 ---A--- null}
- -t 6.4094544 -s 0 -d 1 -p tcp -e 1040 -c 0 -i 68 -a 0 -x {0.0 1.0 34 ---A--- null}
h -t 6.4094544 -s 0 -d 1 -p tcp -e 1040 -c 0 -i 68 -a 0 -x {0.0 1.0 -1 ---A--- null}
r -t 6.40963760000001 -s 0 -d 1 -p tcp -e 1040 -c 0 -i 68 -a 0 -x {0.0 1.0 34 ---A--- null}
+ -t 6.40963760000001 -s 1 -d 0 -p ack -e 40 -c 0 -i 69 -a 0 -x {1.0 0.0 34 ------- null}
- -t 6.40963760000001 -s 1 -d 0 -p ack -e 40 -c 0 -i 69 -a 0 -x {1.0 0.0 34 ------- null}
h -t 6.40963760000001 -s 1 -d 0 -p ack -e 40 -c 0 -i 69 -a 0 -x {1.0 0.0 -1 ------- null}
r -t 6.40974080000001 -s 1 -d 0 -p ack -e 40 -c 0 -i 69 -a 0 -x {1.0 0.0 34 ------- null}
+ -t 6.60974080000001 -s 0 -d 1 -p tcp -e 1040 -c 0 -i 70 -a 0 -x {0.0 1.0 35 ---A--- null}
- -t 6.60974080000001 -s 0 -d 1 -p tcp -e 1040 -c 0 -i 70 -a 0 -x {0.0 1.0 35 ---A--- null}
h -t 6.60974080000001 -s 0 -d 1 -p tcp -e 1040 -c 0 -i 70 -a 0 -x {0.0 1.0 -1 ---A--- null}
r -t 6.60992400000001 -s 0 -d 1 -p tcp -e 1040 -c 0 -i 70 -a 0 -x {0.0 1.0 35 ---A--- null}
+ -t 6.60992400000001 -s 1 -d 0 -p ack -e 40 -c 0 -i 71 -a 0 -x {1.0 0.0 35 ------- null}
- -t 6.60992400000001 -s 1 -d 0 -p ack -e 40 -c 0 -i 71 -a 0 -x {1.0 0.0 35 ------- null}
h -t 6.60992400000001 -s 1 -d 0 -p ack -e 40 -c 0 -i 71 -a 0 -x {1.0 0.0 -1 ------- null}
r -t 6.61002720000001 -s 1 -d 0 -p ack -e 40 -c 0 -i 71 -a 0 -x {1.0 0.0 35 ------- null}
+ -t 6.81002720000001 -s 0 -d 1 -p tcp -e 1040 -c 0 -i 72 -a 0 -x {0.0 1.0 36 ---A--- null}
- -t 6.81002720000001 -s 0 -d 1 -p tcp -e 1040 -c 0 -i 72 -a 0 -x {0.0 1.0 36 ---A--- null}
h -t 6.81002720000001 -s 0 -d 1 -p tcp -e 1040 -c 0 -i 72 -a 0 -x {0.0 1.0 -1 ---A--- null}
r -t 6.81021040000001 -s 0 -d 1 -p tcp -e 1040 -c 0 -i 72 -a 0 -x {0.0 1.0 36 ---A--- null}
+ -t 6.81021040000001 -s 1 -d 0 -p ack -e 40 -c 0 -i 73 -a 0 -x {1.0 0.0 36 ------- null}
- -t 6.81021040000001 -s 1 -d 0 -p ack -e 40 -c 0 -i 73 -a 0 -x {1.0 0.0 36 ------- null}
h -t 6.81021040000001 -s 1 -d 0 -p ack -e 40 -c 0 -i 73 -a 0 -x {1.0 0.0 -1 ------- null}
r -t 6.81031360000001 -s 1 -d 0 -p ack -e 40 -c 0 -i 73 -a 0 -x {1.0 0.0 36 ------- null}
+ -t 7.01031360000001 -s 0 -d 1 -p tcp -e 1040 -c 0 -i 74 -a 0 -x {0.0 1.0 37 ---A--- null}
- -t 7.01031360000001 -s 0 -d 1 -p tcp -e 1040 -c 0 -i 74 -a 0 -x {0.0 1.0 37 ---A--- null}
h -t 7.01031360000001 -s 0 -d 1 -p tcp -e 1040 -c 0 -i 74 -a 0 -x {0.0 1.0 -1 ---A--- null}
r -t 7.01049680000001 -s 0 -d 1 -p tcp -e 1040 -c 0 -i 74 -a 0 -x {0.0 1.0 37 ---A--- null}
+ -t 7.01049680000001 -s 1 -d 0 -p ack -e 40 -c 0 -i 75 -a 0 -x {1.0 0.0 37 ------- null}
- -t 7.01049680000001 -s 1 -d 0 -p ack -e 40 -c 0 -i 75 -a 0 -x {1.0 0.0 37 ------- null}
h -t 7.01049680000001 -s 1 -d 0 -p ack -e 40 -c 0 -i 75 -a 0 -x {1.0 0.0 -1 ------- null}
r -t 7.01060000000001 -s 1 -d 0 -p ack -e 40 -c 0 -i 75 -a 0 -x {1.0 0.0 37 ------- null}
+ -t 7.21060000000001 -s 0 -d 1 -p tcp -e 1040 -c 0 -i 76 -a 0 -x {0.0 1.0 38 ---A--- null}
- -t 7.21060000000001 -s 0 -d 1 -p tcp -e 1040 -c 0 -i 76 -a 0 -x {0.0 1.0 38 ---A--- null}
h -t 7.21060000000001 -s 0 -d 1 -p tcp -e 1040 -c 0 -i 76 -a 0 -x {0.0 1.0 -1 ---A--- null}
r -t 7.21078320000001 -s 0 -d 1 -p tcp -e 1040 -c 0 -i 76 -a 0 -x {0.0 1.0 38 ---A--- null}
+ -t 7.21078320000001 -s 1 -d 0 -p ack -e 40 -c 0 -i 77 -a 0 -x {1.0 0.0 38 ------- null}
- -t 7.21078320000001 -s 1 -d 0 -p ack -e 40 -c 0 -i 77 -a 0 -x {1.0 0.0 38 ------- null}
h -t 7.21078320000001 -s 1 -d 0 -p ack -e 40 -c 0 -i 77 -a 0 -x {1.0 0.0 -1 ------- null}
r -t 7.21088640000001 -s 1 -d 0 -p ack -e 40 -c 0 -i 77 -a 0 -x {1.0 0.0 38 ------- null}
+ -t 7.41088640000001 -s 0 -d 1 -p tcp -e 1040 -c 0 -i 78 -a 0 -x {0.0 1.0 39 ---A--- null}
- -t 7.41088640000001 -s 0 -d 1 -p tcp -e 1040 -c 0 -i 78 -a 0 -x {0.0 1.0 39 ---A--- null}
h -t 7.41088640000001 -s 0 -d 1 -p tcp -e 1040 -c 0 -i 78 -a 0 -x {0.0 1.0 -1 ---A--- null}
r -t 7.41106960000001 -s 0 -d 1 -p tcp -e 1040 -c 0 -i 78 -a 0 -x {0.0 1.0 39 ---A--- null}
+ -t 7.41106960000001 -s 1 -d 0 -p ack -e 40 -c 0 -i 79 -a 0 -x {1.0 0.0 39 ------- null}
- -t 7.41106960000001 -s 1 -d 0 -p ack -e 40 -c 0 -i 79 -a 0 -x {1.0 0.0 39 ------- null}
h -t 7.41106960000001 -s 1 -d 0 -p ack -e 40 -c 0 -i 79 -a 0 -x {1.0 0.0 -1 ------- null}
r -t 7.41117280000001 -s 1 -d 0 -p ack -e 40 -c 0 -i 79 -a 0 -x {1.0 0.0 39 ------- null}
+ -t 7.61117280000001 -s 0 -d 1 -p tcp -e 1040 -c 0 -i 80 -a 0 -x {0.0 1.0 40 ---A--- null}
- -t 7.61117280000001 -s 0 -d 1 -p tcp -e 1040 -c 0 -i 80 -a 0 -x {0.0 1.0 40 ---A--- null}
h -t 7.61117280000001 -s 0 -d 1 -p tcp -e 1040 -c 0 -i 80 -a 0 -x {0.0 1.0 -1 ---A--- null}
r -t 7.61135600000001 -s 0 -d 1 -p tcp -e 1040 -c 0 -i 80 -a 0 -x {0.0 1.0 40 ---A--- null}
+ -t 7.61135600000001 -s 1 -d 0 -p ack -e 40 -c 0 -i 81 -a 0 -x {1.0 0.0 40 ------- null}
- -t 7.61135600000001 -s 1 -d 0 -p ack -e 40 -c 0 -i 81 -a 0 -x {1.0 0.0 40 ------- null}
h -t 7.61135600000001 -s 1 -d 0 -p ack -e 40 -c 0 -i 81 -a 0 -x {1.0 0.0 -1 ------- null}
r -t 7.61145920000001 -s 1 -d 0 -p ack -e 40 -c 0 -i 81 -a 0 -x {1.0 0.0 40 ------- null}
+ -t 7.81145920000001 -s 0 -d 1 -p tcp -e 1040 -c 0 -i 82 -a 0 -x {0.0 1.0 41 ---A--- null}
- -t 7.81145920000001 -s 0 -d 1 -p tcp -e 1040 -c 0 -i 82 -a 0 -x {0.0 1.0 41 ---A--- null}
h -t 7.81145920000001 -s 0 -d 1 -p tcp -e 1040 -c 0 -i 82 -a 0 -x {0.0 1.0 -1 ---A--- null}
r -t 7.81164240000001 -s 0 -d 1 -p tcp -e 1040 -c 0 -i 82 -a 0 -x {0.0 1.0 41 ---A--- null}
+ -t 7.81164240000001 -s 1 -d 0 -p ack -e 40 -c 0 -i 83 -a 0 -x {1.0 0.0 41 ------- null}
- -t 7.81164240000001 -s 1 -d 0 -p ack -e 40 -c 0 -i 83 -a 0 -x {1.0 0.0 41 ------- null}
h -t 7.81164240000001 -s 1 -d 0 -p ack -e 40 -c 0 -i 83 -a 0 -x {1.0 0.0 -1 ------- null}
r -t 7.81174560000001 -s 1 -d 0 -p ack -e 40 -c 0 -i 83 -a 0 -x {1.0 0.0 41 ------- null}
+ -t 8.01174560000001 -s 0 -d 1 -p tcp -e 1040 -c 0 -i 84 -a 0 -x {0.0 1.0 42 ---A--- null}
- -t 8.01174560000001 -s 0 -d 1 -p tcp -e 1040 -c 0 -i 84 -a 0 -x {0.0 1.0 42 ---A--- null}
h -t 8.01174560000001 -s 0 -d 1 -p tcp -e 1040 -c 0 -i 84 -a 0 -x {0.0 1.0 -1 ---A--- null}
r -t 8.01192880000001 -s 0 -d 1 -p tcp -e 1040 -c 0 -i 84 -a 0 -x {0.0 1.0 42 ---A--- null}
+ -t 8.01192880000001 -s 1 -d 0 -p ack -e 40 -c 0 -i 85 -a 0 -x {1.0 0.0 42 ------- null}
- -t 8.01192880000001 -s 1 -d 0 -p ack -e 40 -c 0 -i 85 -a 0 -x {1.0 0.0 42 ------- null}
h -t 8.01192880000001 -s 1 -d 0 -p ack -e 40 -c 0 -i 85 -a 0 -x {1.0 0.0 -1 ------- null}
r -t 8.01203200000001 -s 1 -d 0 -p ack -e 40 -c 0 -i 85 -a 0 -x {1.0 0.0 42 ------- null}
+ -t 8.21203200000001 -s 0 -d 1 -p tcp -e 1040 -c 0 -i 86 -a 0 -x {0.0 1.0 43 ---A--- null}
- -t 8.21203200000001 -s 0 -d 1 -p tcp -e 1040 -c 0 -i 86 -a 0 -x {0.0 1.0 43 ---A--- null}
h -t 8.21203200000001 -s 0 -d 1 -p tcp -e 1040 -c 0 -i 86 -a 0 -x {0.0 1.0 -1 ---A--- null}
r -t 8.21221520000001 -s 0 -d 1 -p tcp -e 1040 -c 0 -i 86 -a 0 -x {0.0 1.0 43 ---A--- null}
+ -t 8.21221520000001 -s 1 -d 0 -p ack -e 40 -c 0 -i 87 -a 0 -x {1.0 0.0 43 ------- null}
- -t 8.21221520000001 -s 1 -d 0 -p ack -e 40 -c 0 -i 87 -a 0 -x {1.0 0.0 43 ------- null}