V -t * -v 1.0a5 -a 0
A -t * -n 1 -p 0 -o 0x7fffffff -c 30 -a 1
A -t * -h 1 -m 1073741823 -s 0
n -t * -a 0 -s 0 -S UP -v circle -c black -i black
n -t * -a 1 -s 1 -S UP -v circle -c black -i black
l -t * -s 0 -d 1 -S UP -r 5000000 -D 0.0001 -c black
+ -t 0 -s 0 -d 1 -p tcp -e 40 -c 0 -i 0 -a 0 -x {0.0 1.0 0 C------ null}
- -t 0 -s 0 -d 1 -p tcp -e 40 -c 0 -i 0 -a 0 -x {0.0 1.0 0 C------ null}
h -t 0 -s 0 -d 1 -p tcp -e 40 -c 0 -i 0 -a 0 -x {0.0 1.0 -1 C------ null}
r -t 0.000164 -s 0 -d 1 -p tcp -e 40 -c 0 -i 0 -a 0 -x {0.0 1.0 0 C------ null}
+ -t 0.000164 -s 1 -d 0 -p ack -e 40 -c 0 -i 1 -a 0 -x {1.0 0.0 0 C------ null}
- -t 0.000164 -s 1 -d 0 -p ack -e 40 -c 0 -i 1 -a 0 -x {1.0 0.0 0 C------ null}
h -t 0.000164 -s 1 -d 0 -p ack -e 40 -c 0 -i 1 -a 0 -x {1.0 0.0 -1 C------ null}
r -t 0.000328 -s 1 -d 0 -p ack -e 40 -c 0 -i 1 -a 0 -x {1.0 0.0 0 C------ null}
+ -t 0.000328 -s 0 -d 1 -p tcp -e 1040 -c 0 -i 2 -a 0 -x {0.0 1.0 1 ------N null}
- -t 0.000328 -s 0 -d 1 -p tcp -e 1040 -c 0 -i 2 -a 0 -x {0.0 1.0 1 ------N null}
h -t 0.000328 -s 0 -d 1 -p tcp -e 1040 -c 0 -i 2 -a 0 -x {0.0 1.0 -1 ------N null}
+ -t 0.000328 -s 0 -d 1 -p tcp -e 1040 -c 0 -i 3 -a 0 -x {0.0 1.0 2 ------N null}
- -t 0.001992 -s 0 -d 1 -p tcp -e 1040 -c 0 -i 3 -a 0 -x {0.0 1.0 2 ------N null}
h -t 0.001992 -s 0 -d 1 -p tcp -e 1040 -c 0 -i 3 -a 0 -x {0.0 1.0 -1 ------N null}
r -t 0.002092 -s 0 -d 1 -p tcp -e 1040 -c 0 -i 2 -a 0 -x {0.0 1.0 1 ------N null}
+ -t 0.002092 -s 1 -d 0 -p ack -e 40 -c 0 -i 4 -a 0 -x {1.0 0.0 1 ------- null}
- -t 0.002092 -s 1 -d 0 -p ack -e 40 -c 0 -i 4 -a 0 -x {1.0 0.0 1 ------- null}
h -t 0.002092 -s 1 -d 0 -p ack -e 40 -c 0 -i 4 -a 0 -x {1.0 0.0 -1 ------- null}
r -t 0.002256 -s 1 -d 0 -p ack -e 40 -c 0 -i 4 -a 0 -x {1.0 0.0 1 ------- null}
+ -t 0.002256 -s 0 -d 1 -p tcp -e 1040 -c 0 -i 5 -a 0 -x {0.0 1.0 3 ------N null}
+ -t 0.002256 -s 0 -d 1 -p tcp -e 1040 -c 0 -i 6 -a 0 -x {0.0 1.0 4 ------N null}
+ -t 0.002256 -s 0 -d 1 -p tcp -e 1040 -c 0 -i 7 -a 0 -x {0.0 1.0 5 ------N null}
+ -t 0.002256 -s 0 -d 1 -p tcp -e 1040 -c 0 -i 8 -a 0 -x {0.0 1.0 6 ------N null}
+ -t 0.002256 -s 0 -d 1 -p tcp -e 1040 -c 0 -i 9 -a 0 -x {0.0 1.0 7 ------N null}
+ -t 0.002256 -s 0 -d 1 -p tcp -e 1040 -c 0 -i 10 -a 0 -x {0.0 1.0 8 ------N null}
+ -t 0.002256 -s 0 -d 1 -p tcp -e 1040 -c 0 -i 11 -a 0 -x {0.0 1.0 9 ------N null}
+ -t 0.002256 -s 0 -d 1 -p tcp -e 1040 -c 0 -i 12 -a 0 -x {0.0 1.0 10 ------N null}
+ -t 0.002256 -s 0 -d 1 -p tcp -e 1040 -c 0 -i 13 -a 0 -x {0.0 1.0 11 ------N null}
+ -t 0.002256 -s 0 -d 1 -p tcp -e 1040 -c 0 -i 14 -a 0 -x {0.0 1.0 12 ------N null}
+ -t 0.002256 -s 0 -d 1 -p tcp -e 1040 -c 0 -i 15 -a 0 -x {0.0 1.0 13 ------N null}
+ -t 0.002256 -s 0 -d 1 -p tcp -e 1040 -c 0 -i 16 -a 0 -x {0.0 1.0 14 ------N null}
+ -t 0.002256 -s 0 -d 1 -p tcp -e 1040 -c 0 -i 17 -a 0 -x {0.0 1.0 15 ------N null}
+ -t 0.002256 -s 0 -d 1 -p tcp -e 1040 -c 0 -i 18 -a 0 -x {0.0 1.0 16 ------N null}
+ -t 0.002256 -s 0 -d 1 -p tcp -e 1040 -c 0 -i 19 -a 0 -x {0.0 1.0 17 ------N null}
+ -t 0.002256 -s 0 -d 1 -p tcp -e 1040 -c 0 -i 20 -a 0 -x {0.0 1.0 18 ------N null}
+ -t 0.002256 -s 0 -d 1 -p tcp -e 1040 -c 0 -i 21 -a 0 -x {0.0 1.0 19 ------N null}
+ -t 0.002256 -s 0 -d 1 -p tcp -e 1040 -c 0 -i 22 -a 0 -x {0.0 1.0 20 ------N null}
+ -t 0.002256 -s 0 -d 1 -p tcp -e 1040 -c 0 -i 23 -a 0 -x {0.0 1.0 21 ------N null}
- -t 0.003656 -s 0 -d 1 -p tcp -e 1040 -c 0 -i 5 -a 0 -x {0.0 1.0 3 ------N null}
h -t 0.003656 -s 0 -d 1 -p tcp -e 1040 -c 0 -i 5 -a 0 -x {0.0 1.0 -1 ------N null}
r -t 0.003756 -s 0 -d 1 -p tcp -e 1040 -c 0 -i 3 -a 0 -x {0.0 1.0 2 ------N null}
+ -t 0.003756 -s 1 -d 0 -p ack -e 40 -c 0 -i 24 -a 0 -x {1.0 0.0 2 ------- null}
- -t 0.003756 -s 1 -d 0 -p ack -e 40 -c 0 -i 24 -a 0 -x {1.0 0.0 2 ------- null}
h -t 0.003756 -s 1 -d 0 -p ack -e 40 -c 0 -i 24 -a 0 -x {1.0 0.0 -1 ------- null}
r -t 0.00392 -s 1 -d 0 -p ack -e 40 -c 0 -i 24 -a 0 -x {1.0 0.0 2 ------- null}
+ -t 0.00392 -s 0 -d 1 -p tcp -e 1040 -c 0 -i 25 -a 0 -x {0.0 1.0 22 ------N null}
- -t 0.00532 -s 0 -d 1 -p tcp -e 1040 -c 0 -i 6 -a 0 -x {0.0 1.0 4 ------N null}
h -t 0.00532 -s 0 -d 1 -p tcp -e 1040 -c 0 -i 6 -a 0 -x {0.0 1.0 -1 ------N null}
r -t 0.00542 -s 0 -d 1 -p tcp -e 1040 -c 0 -i 5 -a 0 -x {0.0 1.0 3 ------N null}
+ -t 0.00542 -s 1 -d 0 -p ack -e 40 -c 0 -i 26 -a 0 -x {1.0 0.0 3 ------- null}
- -t 0.00542 -s 1 -d 0 -p ack -e 40 -c 0 -i 26 -a 0 -x {1.0 0.0 3 ------- null}
h -t 0.00542 -s 1 -d 0 -p ack -e 40 -c 0 -i 26 -a 0 -x {1.0 0.0 -1 ------- null}
r -t 0.005584 -s 1 -d 0 -p ack -e 40 -c 0 -i 26 -a 0 -x {1.0 0.0 3 ------- null}
+ -t 0.005584 -s 0 -d 1 -p tcp -e 1040 -c 0 -i 27 -a 0 -x {0.0 1.0 23 ------N null}
- -t 0.006984 -s 0 -d 1 -p tcp -e 1040 -c 0 -i 7 -a 0 -x {0.0 1.0 5 ------N null}
h -t 0.006984 -s 0 -d 1 -p tcp -e 1040 -c 0 -i 7 -a 0 -x {0.0 1.0 -1 ------N null}
r -t 0.007084 -s 0 -d 1 -p tcp -e 1040 -c 0 -i 6 -a 0 -x {0.0 1.0 4 ------N null}
+ -t 0.007084 -s 1 -d 0 -p ack -e 40 -c 0 -i 28 -a 0 -x {1.0 0.0 4 ------- null}
- -t 0.007084 -s 1 -d 0 -p ack -e 40 -c 0 -i 28 -a 0 -x {1.0 0.0 4 ------- null}
h -t 0.007084 -s 1 -d 0 -p ack -e 40 -c 0 -i 28 -a 0 -x {1.0 0.0 -1 ------- null}
r -t 0.007248 -s 1 -d 0 -p ack -e 40 -c 0 -i 28 -a 0 -x {1.0 0.0 4 ------- null}
+ -t 0.007248 -s 0 -d 1 -p tcp -e 1040 -c 0 -i 29 -a 0 -x {0.0 1.0 24 ------N null}
- -t 0.008648 -s 0 -d 1 -p tcp -e 1040 -c 0 -i 8 -a 0 -x {0.0 1.0 6 ------N null}
h -t 0.008648 -s 0 -d 1 -p tcp -e 1040 -c 0 -i 8 -a 0 -x {0.0 1.0 -1 ------N null}
r -t 0.008748 -s 0 -d 1 -p tcp -e 1040 -c 0 -i 7 -a 0 -x {0.0 1.0 5 ------N null}
+ -t 0.008748 -s 1 -d 0 -p ack -e 40 -c 0 -i 30 -a 0 -x {1.0 0.0 5 ------- null}
- -t 0.008748 -s 1 -d 0 -p ack -e 40 -c 0 -i 30 -a 0 -x {1.0 0.0 5 ------- null}
h -t 0.008748 -s 1 -d 0 -p ack -e 40 -c 0 -i 30 -a 0 -x {1.0 0.0 -1 ------- null}
r -t 0.008912 -s 1 -d 0 -p ack -e 40 -c 0 -i 30 -a 0 -x {1.0 0.0 5 ------- null}
+ -t 0.008912 -s 0 -d 1 -p tcp -e 1040 -c 0 -i 31 -a 0 -x {0.0 1.0 25 ------N null}
- -t 0.010312 -s 0 -d 1 -p tcp -e 1040 -c 0 -i 9 -a 0 -x {0.0 1.0 7 ------N null}
h -t 0.010312 -s 0 -d 1 -p tcp -e 1040 -c 0 -i 9 -a 0 -x {0.0 1.0 -1 ------N null}
r -t 0.010412 -s 0 -d 1 -p tcp -e 1040 -c 0 -i 8 -a 0 -x {0.0 1.0 6 ------N null}
+ -t 0.010412 -s 1 -d 0 -p ack -e 40 -c 0 -i 32 -a 0 -x {1.0 0.0 6 ------- null}
- -t 0.010412 -s 1 -d 0 -p ack -e 40 -c 0 -i 32 -a 0 -x {1.0 0.0 6 ------- null}
h -t 0.010412 -s 1 -d 0 -p ack -e 40 -c 0 -i 32 -a 0 -x {1.0 0.0 -1 ------- null}
r -t 0.010576 -s 1 -d 0 -p ack -e 40 -c 0 -i 32 -a 0 -x {1.0 0.0 6 ------- null}
+ -t 0.010576 -s 0 -d 1 -p tcp -e 1040 -c 0 -i 33 -a 0 -x {0.0 1.0 26 ------N null}
- -t 0.011976 -s 0 -d 1 -p tcp -e 1040 -c 0 -i 10 -a 0 -x {0.0 1.0 8 ------N null}
h -t 0.011976 -s 0 -d 1 -p tcp -e 1040 -c 0 -i 10 -a 0 -x {0.0 1.0 -1 ------N null}
r -t 0.012076 -s 0 -d 1 -p tcp -e 1040 -c 0 -i 9 -a 0 -x {0.0 1.0 7 ------N null}
+ -t 0.012076 -s 1 -d 0 -p ack -e 40 -c 0 -i 34 -a 0 -x {1.0 0.0 7 ------- null}
- -t 0.012076 -s 1 -d 0 -p ack -e 40 -c 0 -i 34 -a 0 -x {1.0 0.0 7 ------- null}
h -t 0.012076 -s 1 -d 0 -p ack -e 40 -c 0 -i 34 -a 0 -x {1.0 0.0 -1 ------- null}
r -t 0.01224 -s 1 -d 0 -p ack -e 40 -c 0 -i 34 -a 0 -x {1.0 0.0 7 ------- null}
+ -t 0.01224 -s 0 -d 1 -p tcp -e 1040 -c 0 -i 35 -a 0 -x {0.0 1.0 27 ------N null}
- -t 0.01364 -s 0 -d 1 -p tcp -e 1040 -c 0 -i 11 -a 0 -x {0.0 1.0 9 ------N null}
h -t 0.01364 -s 0 -d 1 -p tcp -e 1040 -c 0 -i 11 -a 0 -x {0.0 1.0 -1 ------N null}
r -t 0.01374 -s 0 -d 1 -p tcp -e 1040 -c 0 -i 10 -a 0 -x {0.0 1.0 8 ------N null}
+ -t 0.01374 -s 1 -d 0 -p ack -e 40 -c 0 -i 36 -a 0 -x {1.0 0.0 8 ------- null}
- -t 0.01374 -s 1 -d 0 -p ack -e 40 -c 0 -i 36 -a 0 -x {1.0 0.0 8 ------- null}
h -t 0.01374 -s 1 -d 0 -p ack -e 40 -c 0 -i 36 -a 0 -x {1.0 0.0 -1 ------- null}
r -t 0.013904 -s 1 -d 0 -p ack -e 40 -c 0 -i 36 -a 0 -x {1.0 0.0 8 ------- null}
+ -t 0.013904 -s 0 -d 1 -p tcp -e 1040 -c 0 -i 37 -a 0 -x {0.0 1.0 28 ------N null}
- -t 0.015304 -s 0 -d 1 -p tcp -e 1040 -c 0 -i 12 -a 0 -x {0.0 1.0 10 ------N null}
h -t 0.015304 -s 0 -d 1 -p tcp -e 1040 -c 0 -i 12 -a 0 -x {0.0 1.0 -1 ------N null}
r -t 0.015404 -s 0 -d 1 -p tcp -e 1040 -c 0 -i 11 -a 0 -x {0.0 1.0 9 ------N null}
+ -t 0.015404 -s 1 -d 0 -p ack -e 40 -c 0 -i 38 -a 0 -x {1.0 0.0 9 ------- null}
- -t 0.015404 -s 1 -d 0 -p ack -e 40 -c 0 -i 38 -a 0 -x {1.0 0.0 9 ------- null}
h -t 0.015404 -s 1 -d 0 -p ack -e 40 -c 0 -i 38 -a 0 -x {1.0 0.0 -1 ------- null}
r -t 0.015568 -s 1 -d 0 -p ack -e 40 -c 0 -i 38 -a 0 -x {1.0 0.0 9 ------- null}
+ -t 0.015568 -s 0 -d 1 -p tcp -e 1040 -c 0 -i 39 -a 0 -x {0.0 1.0 29 ------N null}
- -t 0.016968 -s 0 -d 1 -p tcp -e 1040 -c 0 -i 13 -a 0 -x {0.0 1.0 11 ------N null}
h -t 0.016968 -s 0 -d 1 -p tcp -e 1040 -c 0 -i 13 -a 0 -x {0.0 1.0 -1 ------N null}
r -t 0.017068 -s 0 -d 1 -p tcp -e 1040 -c 0 -i 12 -a 0 -x {0.0 1.0 10 ------N null}
+ -t 0.017068 -s 1 -d 0 -p ack -e 40 -c 0 -i 40 -a 0 -x {1.0 0.0 10 ------- null}
- -t 0.017068 -s 1 -d 0 -p ack -e 40 -c 0 -i 40 -a 0 -x {1.0 0.0 10 ------- null}
h -t 0.017068 -s 1 -d 0 -p ack -e 40 -c 0 -i 40 -a 0 -x {1.0 0.0 -1 ------- null}
r -t 0.017232 -s 1 -d 0 -p ack -e 40 -c 0 -i 40 -a 0 -x {1.0 0.0 10 ------- null}
+ -t 0.017232 -s 0 -d 1 -p tcp -e 1040 -c 0 -i 41 -a 0 -x {0.0 1.0 30 ------N null}
- -t 0.018632 -s 0 -d 1 -p tcp -e 1040 -c 0 -i 14 -a 0 -x {0.0 1.0 12 ------N null}
h -t 0.018632 -s 0 -d 1 -p tcp -e 1040 -c 0 -i 14 -a 0 -x {0.0 1.0 -1 ------N null}
r -t 0.018732 -s 0 -d 1 -p tcp -e 1040 -c 0 -i 13 -a 0 -x {0.0 1.0 11 ------N null}
+ -t 0.018732 -s 1 -d 0 -p ack -e 40 -c 0 -i 42 -a 0 -x {1.0 0.0 11 ------- null}
- -t 0.018732 -s 1 -d 0 -p ack -e 40 -c 0 -i 42 -a 0 -x {1.0 0.0 11 ------- null}
h -t 0.018732 -s 1 -d 0 -p ack -e 40 -c 0 -i 42 -a 0 -x {1.0 0.0 -1 ------- null}
r -t 0.018896 -s 1 -d 0 -p ack -e 40 -c 0 -i 42 -a 0 -x {1.0 0.0 11 ------- null}
+ -t 0.018896 -s 0 -d 1 -p tcp -e 1040 -c 0 -i 43 -a 0 -x {0.0 1.0 31 ------N null}
- -t 0.020296 -s 0 -d 1 -p tcp -e 1040 -c 0 -i 15 -a 0 -x {0.0 1.0 13 ------N null}
h -t 0.020296 -s 0 -d 1 -p tcp -e 1040 -c 0 -i 15 -a 0 -x {0.0 1.0 -1 ------N null}
r -t 0.020396 -s 0 -d 1 -p tcp -e 1040 -c 0 -i 14 -a 0 -x {0.0 1.0 12 ------N null}
+ -t 0.020396 -s 1 -d 0 -p ack -e 40 -c 0 -i 44 -a 0 -x {1.0 0.0 12 ------- null}
- -t 0.020396 -s 1 -d 0 -p ack -e 40 -c 0 -i 44 -a 0 -x {1.0 0.0 12 ------- null}
h -t 0.020396 -s 1 -d 0 -p ack -e 40 -c 0 -i 44 -a 0 -x {1.0 0.0 -1 ------- null}
r -t 0.02056 -s 1 -d 0 -p ack -e 40 -c 0 -i 44 -a 0 -x {1.0 0.0 12 ------- null}
+ -t 0.02056 -s 0 -d 1 -p tcp -e 1040 -c 0 -i 45 -a 0 -x {0.0 1.0 32 ------N null}
- -t 0.02196 -s 0 -d 1 -p tcp -e 1040 -c 0 -i 16 -a 0 -x {0.0 1.0 14 ------N null}
h -t 0.02196 -s 0 -d 1 -p tcp -e 1040 -c 0 -i 16 -a 0 -x {0.0 1.0 -1 ------N null}
r -t 0.02206 -s 0 -d 1 -p tcp -e 1040 -c 0 -i 15 -a 0 -x {0.0 1.0 13 ------N null}
+ -t 0.02206 -s 1 -d 0 -p ack -e 40 -c 0 -i 46 -a 0 -x {1.0 0.0 13 ------- null}
- -t 0.02206 -s 1 -d 0 -p ack -e 40 -c 0 -i 46 -a 0 -x {1.0 0.0 13 ------- null}
h -t 0.02206 -s 1 -d 0 -p ack -e 40 -c 0 -i 46 -a 0 -x {1.0 0.0 -1 ------- null}
r -t 0.022224 -s 1 -d 0 -p ack -e 40 -c 0 -i 46 -a 0 -x {1.0 0.0 13 ------- null}
+ -t 0.022224 -s 0 -d 1 -p tcp -e 1040 -c 0 -i 47 -a 0 -x {0.0 1.0 33 ------N null}
- -t 0.023624 -s 0 -d 1 -p tcp -e 1040 -c 0 -i 17 -a 0 -x {0.0 1.0 15 ------N null}
h -t 0.023624 -s 0 -d 1 -p tcp -e 1040 -c 0 -i 17 -a 0 -x {0.0 1.0 -1 ------N null}
r -t 0.023724 -s 0 -d 1 -p tcp -e 1040 -c 0 -i 16 -a 0 -x {0.0 1.0 14 ------N null}
+ -t 0.023724 -s 1 -d 0 -p ack -e 40 -c 0 -i 48 -a 0 -x {1.0 0.0 14 ------- null}
- -t 0.023724 -s 1 -d 0 -p ack -e 40 -c 0 -i 48 -a 0 -x {1.0 0.0 14 ------- null}
h -t 0.023724 -s 1 -d 0 -p ack -e 40 -c 0 -i 48 -a 0 -x {1.0 0.0 -1 ------- null}
r -t 0.023888 -s 1 -d 0 -p ack -e 40 -c 0 -i 48 -a 0 -x {1.0 0.0 14 ------- null}
+ -t 0.023888 -s 0 -d 1 -p tcp -e 1040 -c 0 -i 49 -a 0 -x {0.0 1.0 34 ------N null}
- -t 0.025288 -s 0 -d 1 -p tcp -e 1040 -c 0 -i 18 -a 0 -x {0.0 1.0 16 ------N null}
h -t 0.025288 -s 0 -d 1 -p tcp -e 1040 -c 0 -i 18 -a 0 -x {0.0 1.0 -1 ------N null}
r -t 0.025388 -s 0 -d 1 -p tcp -e 1040 -c 0 -i 17 -a 0 -x {0.0 1.0 15 ------N null}
+ -t 0.025388 -s 1 -d 0 -p ack -e 40 -c 0 -i 50 -a 0 -x {1.0 0.0 15 ------- null}
- -t 0.025388 -s 1 -d 0 -p ack -e 40 -c 0 -i 50 -a 0 -x {1.0 0.0 15 ------- null}
h -t 0.025388 -s 1 -d 0 -p ack -e 40 -c 0 -i 50 -a 0 -x {1.0 0.0 -1 ------- null}
r -t 0.025552 -s 1 -d 0 -p ack -e 40 -c 0 -i 50 -a 0 -x {1.0 0.0 15 ------- null}
+ -t 0.025552 -s 0 -d 1 -p tcp -e 1040 -c 0 -i 51 -a 0 -x {0.0 1.0 35 ------N null}
- -t 0.026952 -s 0 -d 1 -p tcp -e 1040 -c 0 -i 19 -a 0 -x {0.0 1.0 17 ------N null}
h -t 0.026952 -s 0 -d 1 -p tcp -e 1040 -c 0 -i 19 -a 0 -x {0.0 1.0 -1 ------N null}
r -t 0.027052 -s 0 -d 1 -p tcp -e 1040 -c 0 -i 18 -a 0 -x {0.0 1.0 16 ------N null}
+ -t 0.027052 -s 1 -d 0 -p ack -e 40 -c 0 -i 52 -a 0 -x {1.0 0.0 16 ------- null}
- -t 0.027052 -s 1 -d 0 -p ack -e 40 -c 0 -i 52 -a 0 -x {1.0 0.0 16 ------- null}
h -t 0.027052 -s 1 -d 0 -p ack -e 40 -c 0 -i 52 -a 0 -x {1.0 0.0 -1 ------- null}
r -t 0.027216 -s 1 -d 0 -p ack -e 40 -c 0 -i 52 -a 0 -x {1.0 0.0 16 ------- null}
+ -t 0.027216 -s 0 -d 1 -p tcp -e 1040 -c 0 -i 53 -a 0 -x {0.0 1.0 36 ------N null}
- -t 0.028616 -s 0 -d 1 -p tcp -e 1040 -c 0 -i 20 -a 0 -x {0.0 1.0 18 ------N null}
h -t 0.028616 -s 0 -d 1 -p tcp -e 1040 -c 0 -i 20 -a 0 -x {0.0 1.0 -1 ------N null}
r -t 0.028716 -s 0 -d 1 -p tcp -e 1040 -c 0 -i 19 -a 0 -x {0.0 1.0 17 ------N null}
+ -t 0.028716 -s 1 -d 0 -p ack -e 40 -c 0 -i 54 -a 0 -x {1.0 0.0 17 ------- null}
- -t 0.028716 -s 1 -d 0 -p ack -e 40 -c 0 -i 54 -a 0 -x {1.0 0.0 17 ------- null}
h -t 0.028716 -s 1 -d 0 -p ack -e 40 -c 0 -i 54 -a 0 -x {1.0 0.0 -1 ------- null}
r -t 0.02888 -s 1 -d 0 -p ack -e 40 -c 0 -i 54 -a 0 -x {1.0 0.0 17 ------- null}
+ -t 0.02888 -s 0 -d 1 -p tcp -e 1040 -c 0 -i 55 -a 0 -x {0.0 1.0 37 ------N null}
- -t 0.03028 -s 0 -d 1 -p tcp -e 1040 -c 0 -i 21 -a 0 -x {0.0 1.0 19 ------N null}
h -t 0.03028 -s 0 -d 1 -p tcp -e 1040 -c 0 -i 21 -a 0 -x {0.0 1.0 -1 ------N null}
r -t 0.03038 -s 0 -d 1 -p tcp -e 1040 -c 0 -i 20 -a 0 -x {0.0 1.0 18 ------N null}
+ -t 0.03038 -s 1 -d 0 -p ack -e 40 -c 0 -i 56 -a 0 -x {1.0 0.0 18 ------- null}
- -t 0.03038 -s 1 -d 0 -p ack -e 40 -c 0 -i 56 -a 0 -x {1.0 0.0 18 ------- null}
h -t 0.03038 -s 1 -d 0 -p ack -e 40 -c 0 -i 56 -a 0 -x {1.0 0.0 -1 ------- null}
r -t 0.030544 -s 1 -d 0 -p ack -e 40 -c 0 -i 56 -a 0 -x {1.0 0.0 18 ------- null}
+ -t 0.030544 -s 0 -d 1 -p tcp -e 1040 -c 0 -i 57 -a 0 -x {0.0 1.0 38 ------N null}
- -t 0.031944 -s 0 -d 1 -p tcp -e 1040 -c 0 -i 22 -a 0 -x {0.0 1.0 20 ------N null}
h -t 0.031944 -s 0 -d 1 -p tcp -e 1040 -c 0 -i 22 -a 0 -x {0.0 1.0 -1 ------N null}
r -t 0.032044 -s 0 -d 1 -p tcp -e 1040 -c 0 -i 21 -a 0 -x {0.0 1.0 19 ------N null}
+ -t 0.032044 -s 1 -d 0 -p ack -e 40 -c 0 -i 58 -a 0 -x {1.0 0.0 19 ------- null}
- -t 0.032044 -s 1 -d 0 -p ack -e 40 -c 0 -i 58 -a 0 -x {1.0 0.0 19 ------- null}
h -t 0.032044 -s 1 -d 0 -p ack -e 40 -c 0 -i 58 -a 0 -x {1.0 0.0 -1 ------- null}
r -t 0.032208 -s 1 -d 0 -p ack -e 40 -c 0 -i 58 -a 0 -x {1.0 0.0 19 ------- null}
+ -t 0.032208 -s 0 -d 1 -p tcp -e 1040 -c 0 -i 59 -a 0 -x {0.0 1.0 39 ------N null}
- -t 0.033608 -s 0 -d 1 -p tcp -e 1040 -c 0 -i 23 -a 0 -x {0.0 1.0 21 ------N null}
h -t 0.033608 -s 0 -d 1 -p tcp -e 1040 -c 0 -i 23 -a 0 -x {0.0 1.0 -1 ------N null}
r -t 0.033708 -s 0 -d 1 -p tcp -e 1040 -c 0 -i 22 -a 0 -x {0.0 1.0 20 ------N null}
+ -t 0.033708 -s 1 -d 0 -p ack -e 40 -c 0 -i 60 -a 0 -x {1.0 0.0 20 ------- null}
- -t 0.033708 -s 1 -d 0 -p ack -e 40 -c 0 -i 60 -a 0 -x {1.0 0.0 20 ------- null}
h -t 0.033708 -s 1 -d 0 -p ack -e 40 -c 0 -i 60 -a 0 -x {1.0 0.0 -1 ------- null}
r -t 0.033872 -s 1 -d 0 -p ack -e 40 -c 0 -i 60 -a 0 -x {1.0 0.0 20 ------- null}
+ -t 0.033872 -s 0 -d 1 -p tcp -e 1040 -c 0 -i 61 -a 0 -x {0.0 1.0 40 ------N null}
- -t 0.035272 -s 0 -d 1 -p tcp -e 1040 -c 0 -i 25 -a 0 -x {0.0 1.0 22 ------N null}
h -t 0.035272 -s 0 -d 1 -p tcp -e 1040 -c 0 -i 25 -a 0 -x {0.0 1.0 -1 ------N null}
r -t 0.035372 -s 0 -d 1 -p tcp -e 1040 -c 0 -i 23 -a 0 -x {0.0 1.0 21 ------N null}
+ -t 0.035372 -s 1 -d 0 -p ack -e 40 -c 0 -i 62 -a 0 -x {1.0 0.0 21 ------- null}
- -t 0.035372 -s 1 -d 0 -p ack -e 40 -c 0 -i 62 -a 0 -x {1.0 0.0 21 ------- null}
h -t 0.035372 -s 1 -d 0 -p ack -e 40 -c 0 -i 62 -a 0 -x {1.0 0.0 -1 ------- null}
r -t 0.035536 -s 1 -d 0 -p ack -e 40 -c 0 -i 62 -a 0 -x {1.0 0.0 21 ------- null}
+ -t 0.035536 -s 0 -d 1 -p tcp -e 1040 -c 0 -i 63 -a 0 -x {0.0 1.0 41 ------N null}
- -t 0.036936 -s 0 -d 1 -p tcp -e 1040 -c 0 -i 27 -a 0 -x {0.0 1.0 23 ------N null}
h -t 0.036936 -s 0 -d 1 -p tcp -e 1040 -c 0 -i 27 -a 0 -x {0.0 1.0 -1 ------N null}
r -t 0.037036 -s 0 -d 1 -p tcp -e 1040 -c 0 -i 25 -a 0 -x {0.0 1.0 22 ------N null}
+ -t 0.037036 -s 1 -d 0 -p ack -e 40 -c 0 -i 64 -a 0 -x {1.0 0.0 22 ------- null}
- -t 0.037036 -s 1 -d 0 -p ack -e 40 -c 0 -i 64 -a 0 -x {1.0 0.0 22 ------- null}
h -t 0.037036 -s 1 -d 0 -p ack -e 40 -c 0 -i 64 -a 0 -x {1.0 0.0 -1 ------- null}
r -t 0.0372 -s 1 -d 0 -p ack -e 40 -c 0 -i 64 -a 0 -x {1.0 0.0 22 ------- null}
+ -t 0.0372 -s 0 -d 1 -p tcp -e 1040 -c 0 -i 65 -a 0 -x {0.0 1.0 42 ------N null}
- -t 0.0386 -s 0 -d 1 -p tcp -e 1040 -c 0 -i 29 -a 0 -x {0.0 1.0 24 ------N null}
h -t 0.0386 -s 0 -d 1 -p tcp -e 1040 -c 0 -i 29 -a 0 -x {0.0 1.0 -1 ------N null}
r -t 0.0387 -s 0 -d 1 -p tcp -e 1040 -c 0 -i 27 -a 0 -x {0.0 1.0 23 ------N null}
+ -t 0.0387 -s 1 -d 0 -p ack -e 40 -c 0 -i 66 -a 0 -x {1.0 0.0 23 ------- null}
- -t 0.0387 -s 1 -d 0 -p ack -e 40 -c 0 -i 66 -a 0 -x {1.0 0.0 23 ------- null}
h -t 0.0387 -s 1 -d 0 -p ack -e 40 -c 0 -i 66 -a 0 -x {1.0 0.0 -1 ------- null}
r -t 0.038864 -s 1 -d 0 -p ack -e 40 -c 0 -i 66 -a 0 -x {1.0 0.0 23 ------- null}
+ -t 0.038864 -s 0 -d 1 -p tcp -e 1040 -c 0 -i 67 -a 0 -x {0.0 1.0 43 ------N null}
- -t 0.040264 -s 0 -d 1 -p tcp -e 1040 -c 0 -i 31 -a 0 -x {0.0 1.0 25 ------N null}
h -t 0.040264 -s 0 -d 1 -p tcp -e 1040 -c 0 -i 31 -a 0 -x {0.0 1.0 -1 ------N null}
r -t 0.040364 -s 0 -d 1 -p tcp -e 1040 -c 0 -i 29 -a 0 -x {0.0 1.0 24 ------N null}
+ -t 0.040364 -s 1 -d 0 -p ack -e 40 -c 0 -i 68 -a 0 -x {1.0 0.0 24 ------- null}
- -t 0.040364 -s 1 -d 0 -p ack -e 40 -c 0 -i 68 -a 0 -x {1.0 0.0 24 ------- null}
h -t 0.040364 -s 1 -d 0 -p ack -e 40 -c 0 -i 68 -a 0 -x {1.0 0.0 -1 ------- null}
r -t 0.040528 -s 1 -d 0 -p ack -e 40 -c 0 -i 68 -a 0 -x {1.0 0.0 24 ------- null}
+ -t 0.040528 -s 0 -d 1 -p tcp -e 1040 -c 0 -i 69 -a 0 -x {0.0 1.0 44 ------N null}
- -t 0.041928 -s 0 -d 1 -p tcp -e 1040 -c 0 -i 33 -a 0 -x {0.0 1.0 26 ------N null}
h -t 0.041928 -s 0 -d 1 -p tcp -e 1040 -c 0 -i 33 -a 0 -x {0.0 1.0 -1 ------N null}
r -t 0.042028 -s 0 -d 1 -p tcp -e 1040 -c 0 -i 31 -a 0 -x {0.0 1.0 25 ------N null}
+ -t 0.042028 -s 1 -d 0 -p ack -e 40 -c 0 -i 70 -a 0 -x {1.0 0.0 25 ------- null}
- -t 0.042028 -s 1 -d 0 -p ack -e 40 -c 0 -i 70 -a 0 -x {1.0 0.0 25 ------- null}
h -t 0.042028 -s 1 -d 0 -p ack -e 40 -c 0 -i 70 -a 0 -x {1.0 0.0 -1 ------- null}
r -t 0.042192 -s 1 -d 0 -p ack -e 40 -c 0 -i 70 -a 0 -x {1.0 0.0 25 ------- null}
+ -t 0.042192 -s 0 -d 1 -p tcp -e 1040 -c 0 -i 71 -a 0 -x {0.0 1.0 45 ------N null}
- -t 0.043592 -s 0 -d 1 -p tcp -e 1040 -c 0 -i 35 -a 0 -x {0.0 1.0 27 ------N null}
h -t 0.043592 -s 0 -d 1 -p tcp -e 1040 -c 0 -i 35 -a 0 -x {0.0 1.0 -1 ------N null}
r -t 0.043692 -s 0 -d 1 -p tcp -e 1040 -c 0 -i 33 -a 0 -x {0.0 1.0 26 ------N null}
+ -t 0.043692 -s 1 -d 0 -p ack -e 40 -c 0 -i 72 -a 0 -x {1.0 0.0 26 ------- null}
- -t 0.043692 -s 1 -d 0 -p ack -e 40 -c 0 -i 72 -a 0 -x {1.0 0.0 26 ------- null}
h -t 0.043692 -s 1 -d 0 -p ack -e 40 -c 0 -i 72 -a 0 -x {1.0 0.0 -1 ------- null}
r -t 0.043856 -s 1 -d 0 -p ack -e 40 -c 0 -i 72 -a 0 -x {1.0 0.0 26 ------- null}
+ -t 0.043856 -s 0 -d 1 -p tcp -e 1040 -c 0 -i 73 -a 0 -x {0.0 1.0 46 ------N null}
- -t 0.045256 -s 0 -d 1 -p tcp -e 1040 -c 0 -i 37 -a 0 -x {0.0 1.0 28 ------N null}
h -t 0.045256 -s 0 -d 1 -p tcp -e 1040 -c 0 -i 37 -a 0 -x {0.0 1.0 -1 ------N null}
r -t 0.045356 -s 0 -d 1 -p tcp -e 1040 -c 0 -i 35 -a 0 -x {0.0 1.0 27 ------N null}
+ -t 0.045356 -s 1 -d 0 -p ack -e 40 -c 0 -i 74 -a 0 -x {1.0 0.0 27 ------- null}
- -t 0.045356 -s 1 -d 0 -p ack -e 40 -c 0 -i 74 -a 0 -x {1.0 0.0 27 ------- null}
h -t 0.045356 -s 1 -d 0 -p ack -e 40 -c 0 -i 74 -a 0 -x {1.0 0.0 -1 ------- null}
r -t 0.04552 -s 1 -d 0 -p ack -e 40 -c 0 -i 74 -a 0 -x {1.0 0.0 27 ------- null}
+ -t 0.04552 -s 0 -d 1 -p tcp -e 1040 -c 0 -i 75 -a 0 -x {0.0 1.0 47 ------N null}
- -t 0.04692 -s 0 -d 1 -p tcp -e 1040 -c 0 -i 39 -a 0 -x {0.0 1.0 29 ------N null}
h -t 0.04692 -s 0 -d 1 -p tcp -e 1040 -c 0 -i 39 -a 0 -x {0.0 1.0 -1 ------N null}
r -t 0.04702 -s 0 -d 1 -p tcp -e 1040 -c 0 -i 37 -a 0 -x {0.0 1.0 28 ------N null}
+ -t 0.04702 -s 1 -d 0 -p ack -e 40 -c 0 -i 76 -a 0 -x {1.0 0.0 28 ------- null}
- -t 0.04702 -s 1 -d 0 -p ack -e 40 -c 0 -i 76 -a 0 -x {1.0 0.0 28 ------- null}
h -t 0.04702 -s 1 -d 0 -p ack -e 40 -c 0 -i 76 -a 0 -x {1.0 0.0 -1 ------- null}
r -t 0.047184 -s 1 -d 0 -p ack -e 40 -c 0 -i 76 -a 0 -x {1.0 0.0 28 ------- null}
+ -t 0.047184 -s 0 -d 1 -p tcp -e 1040 -c 0 -i 77 -a 0 -x {0.0 1.0 48 ------N null}
- -t 0.048584 -s 0 -d 1 -p tcp -e 1040 -c 0 -i 41 -a 0 -x {0.0 1.0 30 ------N null}
h -t 0.048584 -s 0 -d 1 -p tcp -e 1040 -c 0 -i 41 -a 0 -x {0.0 1.0 -1 ------N null}
r -t 0.048684 -s 0 -d 1 -p tcp -e 1040 -c 0 -i 39 -a 0 -x {0.0 1.0 29 ------N null}
+ -t 0.048684 -s 1 -d 0 -p ack -e 40 -c 0 -i 78 -a 0 -x {1.0 0.0 29 ------- null}
- -t 0.048684 -s 1 -d 0 -p ack -e 40 -c 0 -i 78 -a 0 -x {1.0 0.0 29 ------- null}
h -t 0.048684 -s 1 -d 0 -p ack -e 40 -c 0 -i 78 -a 0 -x {1.0 0.0 -1 ------- null}
r -t 0.048848 -s 1 -d 0 -p ack -e 40 -c 0 -i 78 -a 0 -x {1.0 0.0 29 ------- null}
+ -t 0.048848 -s 0 -d 1 -p tcp -e 1040 -c 0 -i 79 -a 0 -x {0.0 1.0 49 ------N null}
- -t 0.050248 -s 0 -d 1 -p tcp -e 1040 -c 0 -i 43 -a 0 -x {0.0 1.0 31 ------N null}
h -t 0.050248 -s 0 -d 1 -p tcp -e 1040 -c 0 -i 43 -a 0 -x {0.0 1.0 -1 ------N null}
r -t 0.050348 -s 0 -d 1 -p tcp -e 1040 -c 0 -i 41 -a 0 -x {0.0 1.0 30 ------N null}
+ -t 0.050348 -s 1 -d 0 -p ack -e 40 -c 0 -i 80 -a 0 -x {1.0 0.0 30 ------- null}
- -t 0.050348 -s 1 -d 0 -p ack -e 40 -c 0 -i 80 -a 0 -x {1.0 0.0 30 ------- null}
h -t 0.050348 -s 1 -d 0 -p ack -e 40 -c 0 -i 80 -a 0 -x {1.0 0.0 -1 ------- null}
r -t 0.050512 -s 1 -d 0 -p ack -e 40 -c 0 -i 80 -a 0 -x {1.0 0.0 30 ------- null}
+ -t 0.050512 -s 0 -d 1 -p tcp -e 1040 -c 0 -i 81 -a 0 -x {0.0 1.0 50 ------N null}
- -t 0.051912 -s 0 -d 1 -p tcp -e 1040 -c 0 -i 45 -a 0 -x {0.0 1.0 32 ------N null}
h -t 0.051912 -s 0 -d 1 -p tcp -e 1040 -c 0 -i 45 -a 0 -x {0.0 1.0 -1 ------N null}
r -t 0.052012 -s 0 -d 1 -p tcp -e 1040 -c 0 -i 43 -a 0 -x {0.0 1.0 31 ------N null}
+ -t 0.052012 -s 1 -d 0 -p ack -e 40 -c 0 -i 82 -a 0 -x {1.0 0.0 31 ------- null}
- -t 0.052012 -s 1 -d 0 -p ack -e 40 -c 0 -i 82 -a 0 -x {1.0 0.0 31 ------- null}
h -t 0.052012 -s 1 -d 0 -p ack -e 40 -c 0 -i 82 -a 0 -x {1.0 0.0 -1 ------- null}
r -t 0.052176 -s 1 -d 0 -p ack -e 40 -c 0 -i 82 -a 0 -x {1.0 0.0 31 ------- null}
+ -t 0.052176 -s 0 -d 1 -p tcp -e 1040 -c 0 -i 83 -a 0 -x {0.0 1.0 51 ------N null}
- -t 0.053576 -s 0 -d 1 -p tcp -e 1040 -c 0 -i 47 -a 0 -x {0.0 1.0 33 ------N null}
h -t 0.053576 -s 0 -d 1 -p tcp -e 1040 -c 0 -i 47 -a 0 -x {0.0 1.0 -1 ------N null}
r -t 0.053676 -s 0 -d 1 -p tcp -e 1040 -c 0 -i 45 -a 0 -x {0.0 1.0 32 ------N null}
+ -t 0.053676 -s 1 -d 0 -p ack -e 40 -c 0 -i 84 -a 0 -x {1.0 0.0 32 ------- null}
- -t 0.053676 -s 1 -d 0 -p ack -e 40 -c 0 -i 84 -a 0 -x {1.0 0.0 32 ------- null}
h -t 0.053676 -s 1 -d 0 -p ack -e 40 -c 0 -i 84 -a 0 -x {1.0 0.0 -1 ------- null}
r -t 0.05384 -s 1 -d 0 -p ack -e 40 -c 0 -i 84 -a 0 -x {1.0 0.0 32 ------- null}
+ -t 0.05384 -s 0 -d 1 -p tcp -e 1040 -c 0 -i 85 -a 0 -x {0.0 1.0 52 ------N null}
- -t 0.05524 -s 0 -d 1 -p tcp -e 1040 -c 0 -i 49 -a 0 -x {0.0 1.0 34 ------N null}
h -t 0.05524 -s 0 -d 1 -p tcp -e 1040 -c 0 -i 49 -a 0 -x {0.0 1.0 -1 ------N null}
r -t 0.05534 -s 0 -d 1 -p tcp -e 1040 -c 0 -i 47 -a 0 -x {0.0 1.0 33 ------N null}
+ -t 0.05534 -s 1 -d 0 -p ack -e 40 -c 0 -i 86 -a 0 -x {1.0 0.0 33 ------- null}
- -t 0.05534 -s 1 -d 0 -p ack -e 40 -c 0 -i 86 -a 0 -x {1.0 0.0 33 ------- null}
h -t 0.05534 -s 1 -d 0 -p ack -e 40 -c 0 -i 86 -a 0 -x {1.0 0.0 -1 ------- null}
r -t 0.055504 -s 1 -d 0 -p ack -e 40 -c 0 -i 86 -a 0 -x {1.0 0.0 33 ------- null}
+ -t 0.055504 -s 0 -d 1 -p tcp -e 1040 -c 0 -i 87 -a 0 -x {0.0 1.0 53 ------N null}
- -t 0.056904 -s 0 -d 1 -p tcp -e 1040 -c 0 -i 51 -a 0 -x {0.0 1.0 35 ------N null}
h -t 0.056904 -s 0 -d 1 -p tcp -e 1040 -c 0 -i 51 -a 0 -x {0.0 1.0 -1 ------N null}
r -t 0.057004 -s 0 -d 1 -p tcp -e 1040 -c 0 -i 49 -a 0 -x {0.0 1.0 34 ------N null}
+ -t 0.057004 -s 1 -d 0 -p ack -e 40 -c 0 -i 88 -a 0 -x {1.0 0.0 34 ------- null}
- -t 0.057004 -s 1 -d 0 -p ack -e 40 -c 0 -i 88 -a 0 -x {1.0 0.0 34 ------- null}
h -t 0.057004 -s 1 -d 0 -p ack -e 40 -c 0 -i 88 -a 0 -x {1.0 0.0 -1 ------- null}
r -t 0.057168 -s 1 -d 0 -p ack -e 40 -c 0 -i 88 -a 0 -x {1.0 0.0 34 ------- null}
+ -t 0.057168 -s 0 -d 1 -p tcp -e 1040 -c 0 -i 89 -a 0 -x {0.0 1.0 54 ------N null}
- -t 0.058568 -s 0 -d 1 -p tcp -e 1040 -c 0 -i 53 -a 0 -x {0.0 1.0 36 ------N null}
h -t 0.058568 -s 0 -d 1 -p tcp -e 1040 -c 0 -i 53 -a 0 -x {0.0 1.0 -1 ------N null}
r -t 0.058668 -s 0 -d 1 -p tcp -e 1040 -c 0 -i 51 -a 0 -x {0.0 1.0 35 ------N null}
+ -t 0.058668 -s 1 -d 0 -p ack -e 40 -c 0 -i 90 -a 0 -x {1.0 0.0 35 ------- null}
- -t 0.058668 -s 1 -d 0 -p ack -e 40 -c 0 -i 90 -a 0 -x {1.0 0.0 35 ------- null}
h -t 0.058668 -s 1 -d 0 -p ack -e 40 -c 0 -i 90 -a 0 -x {1.0 0.0 -1 ------- null}
r -t 0.058832 -s 1 -d 0 -p ack -e 40 -c 0 -i 90 -a 0 -x {1.0 0.0 35 ------- null}
+ -t 0.058832 -s 0 -d 1 -p tcp -e 1040 -c 0 -i 91 -a 0 -x {0.0 1.0 55 ------N null}
- -t 0.060232 -s 0 -d 1 -p tcp -e 1040 -c 0 -i 55 -a 0 -x {0.0 1.0 37 ------N null}
h -t 0.060232 -s 0 -d 1 -p tcp -e 1040 -c 0 -i 55 -a 0 -x {0.0 1.0 -1 ------N null}
r -t 0.060332 -s 0 -d 1 -p tcp -e 1040 -c 0 -i 53 -a 0 -x {0.0 1.0 36 ------N null}
+ -t 0.060332 -s 1 -d 0 -p ack -e 40 -c 0 -i 92 -a 0 -x {1.0 0.0 36 ------- null}
- -t 0.060332 -s 1 -d 0 -p ack -e 40 -c 0 -i 92 -a 0 -x {1.0 0.0 36 ------- null}
h -t 0.060332 -s 1 -d 0 -p ack -e 40 -c 0 -i 92 -a 0 -x {1.0 0.0 -1 ------- null}
r -t 0.060496 -s 1 -d 0 -p ack -e 40 -c 0 -i 92 -a 0 -x {1.0 0.0 36 ------- null}
+ -t 0.060496 -s 0 -d 1 -p tcp -e 1040 -c 0 -i 93 -a 0 -x {0.0 1.0 56 ------N null}
- -t 0.061896 -s 0 -d 1 -p tcp -e 1040 -c 0 -i 57 -a 0 -x {0.0 1.0 38 ------N null}
h -t 0.061896 -s 0 -d 1 -p tcp -e 1040 -c 0 -i 57 -a 0 -x {0.0 1.0 -1 ------N null}
r -t 0.061996 -s 0 -d 1 -p tcp -e 1040 -c 0 -i 55 -a 0 -x {0.0 1.0 37 ------N null}
+ -t 0.061996 -s 1 -d 0 -p ack -e 40 -c 0 -i 94 -a 0 -x {1.0 0.0 37 ------- null}
- -t 0.061996 -s 1 -d 0 -p ack -e 40 -c 0 -i 94 -a 0 -x {1.0 0.0 37 ------- null}
h -t 0.061996 -s 1 -d 0 -p ack -e 40 -c 0 -i 94 -a 0 -x {1.0 0.0 -1 ------- null}
r -t 0.06216 -s 1 -d 0 -p ack -e 40 -c 0 -i 94 -a 0 -x {1.0 0.0 37 ------- null}
+ -t 0.06216 -s 0 -d 1 -p tcp -e 1040 -c 0 -i 95 -a 0 -x {0.0 1.0 57 ------N null}
- -t 0.06356 -s 0 -d 1 -p tcp -e 1040 -c 0 -i 59 -a 0 -x {0.0 1.0 39 ------N null}
h -t 0.06356 -s 0 -d 1 -p tcp -e 1040 -c 0 -i 59 -a 0 -x {0.0 1.0 -1 ------N null}
r -t 0.06366 -s 0 -d 1 -p tcp -e 1040 -c 0 -i 57 -a 0 -x {0.0 1.0 38 ------N null}
+ -t 0.06366 -s 1 -d 0 -p ack -e 40 -c 0 -i 96 -a 0 -x {1.0 0.0 38 ------- null}
- -t 0.06366 -s 1 -d 0 -p ack -e 40 -c 0 -i 96 -a 0 -x {1.0 0.0 38 ------- null}
h -t 0.06366 -s 1 -d 0 -p ack -e 40 -c 0 -i 96 -a 0 -x {1.0 0.0 -1 ------- null}
r -t 0.063824 -s 1 -d 0 -p ack -e 40 -c 0 -i 96 -a 0 -x {1.0 0.0 38 ------- null}
+ -t 0.063824 -s 0 -d 1 -p tcp -e 1040 -c 0 -i 97 -a 0 -x {0.0 1.0 58 ------N null}
- -t 0.065224 -s 0 -d 1 -p tcp -e 1040 -c 0 -i 61 -a 0 -x {0.0 1.0 40 ------N null}
h -t 0.065224 -s 0 -d 1 -p tcp -e 1040 -c 0 -i 61 -a 0 -x {0.0 1.0 -1 ------N null}
r -t 0.065324 -s 0 -d 1 -p tcp -e 1040 -c 0 -i 59 -a 0 -x {0.0 1.0 39 ------N null}
+ -t 0.065324 -s 1 -d 0 -p ack -e 40 -c 0 -i 98 -a 0 -x {1.0 0.0 39 ------- null}
- -t 0.065324 -s 1 -d 0 -p ack -e 40 -c 0 -i 98 -a 0 -x {1.0 0.0 39 ------- null}
h -t 0.065324 -s 1 -d 0 -p ack -e 40 -c 0 -i 98 -a 0 -x {1.0 0.0 -1 ------- null}
r -t 0.065488 -s 1 -d 0 -p ack -e 40 -c 0 -i 98 -a 0 -x {1.0 0.0 39 ------- null}
+ -t 0.065488 -s 0 -d 1 -p tcp -e 1040 -c 0 -i 99 -a 0 -x {0.0 1.0 59 ------N null}
- -t 0.066888 -s 0 -d 1 -p tcp -e 1040 -c 0 -i 63 -a 0 -x {0.0 1.0 41 ------N null}
h -t 0.066888 -s 0 -d 1 -p tcp -e 1040 -c 0 -i 63 -a 0 -x {0.0 1.0 -1 ------N null}
r -t 0.066988 -s 0 -d 1 -p tcp -e 1040 -c 0 -i 61 -a 0 -x {0.0 1.0 40 ------N null}
+ -t 0.066988 -s 1 -d 0 -p ack -e 40 -c 0 -i 100 -a 0 -x {1.0 0.0 40 ------- null}
- -t 0.066988 -s 1 -d 0 -p ack -e 40 -c 0 -i 100 -a 0 -x {1.0 0.0 40 ------- null}
h -t 0.066988 -s 1 -d 0 -p ack -e 40 -c 0 -i 100 -a 0 -x {1.0 0.0 -1 ------- null}
r -t 0.067152 -s 1 -d 0 -p ack -e 40 -c 0 -i 100 -a 0 -x {1.0 0.0 40 ------- null}
+ -t 0.067152 -s 0 -d 1 -p tcp -e 1040 -c 0 -i 101 -a 0 -x {0.0 1.0 60 ------N null}
- -t 0.068552 -s 0 -d 1 -p tcp -e 1040 -c 0 -i 65 -a 0 -x {0.0 1.0 42 ------N null}
h -t 0.068552 -s 0 -d 1 -p tcp -e 1040 -c 0 -i 65 -a 0 -x {0.0 1.0 -1 ------N null}
r -t 0.068652 -s 0 -d 1 -p tcp -e 1040 -c 0 -i 63 -a 0 -x {0.0 1.0 41 ------N null}
+ -t 0.068652 -s 1 -d 0 -p ack -e 40 -c 0 -i 102 -a 0 -x {1.0 0.0 41 ------- null}
- -t 0.068652 -s 1 -d 0 -p ack -e 40 -c 0 -i 102 -a 0 -x {1.0 0.0 41 ------- null}
h -t 0.068652 -s 1 -d 0 -p ack -e 40 -c 0 -i 102 -a 0 -x {1.0 0.0 -1 ------- null}
r -t 0.068816 -s 1 -d 0 -p ack -e 40 -c 0 -i 102 -a 0 -x {1.0 0.0 41 ------- null}
+ -t 0.068816 -s 0 -d 1 -p tcp -e 1040 -c 0 -i 103 -a 0 -x {0.0 1.0 61 ------N null}
- -t 0.070216 -s 0 -d 1 -p tcp -e 1040 -c 0 -i 67 -a 0 -x {0.0 1.0 43 ------N null}
h -t 0.070216 -s 0 -d 1 -p tcp -e 1040 -c 0 -i 67 -a 0 -x {0.0 1.0 -1 ------N null}