V -t * -v 1.0a5 -a 0
A -t * -n 1 -p 0 -o 0x7fffffff -c 30 -a 1
A -t * -h 1 -m 1073741823 -s 0
n -t * -a 0 -s 0 -S UP -v circle -c black -i black
n -t * -a 1 -s 1 -S UP -v circle -c black -i black
l -t * -s 0 -d 1 -S UP -r 100000000 -D 0.0001 -c black
+ -t 0.2 -s 0 -d 1 -p tcp -e 40 -c 0 -i 0 -a 0 -x {0.0 1.0 0 ------- null}
- -t 0.2 -s 0 -d 1 -p tcp -e 40 -c 0 -i 0 -a 0 -x {0.0 1.0 0 ------- null}
h -t 0.2 -s 0 -d 1 -p tcp -e 40 -c 0 -i 0 -a 0 -x {0.0 1.0 -1 ------- null}
r -t 0.2001032 -s 0 -d 1 -p tcp -e 40 -c 0 -i 0 -a 0 -x {0.0 1.0 0 ------- null}
+ -t 0.2001032 -s 1 -d 0 -p ack -e 40 -c 0 -i 1 -a 0 -x {1.0 0.0 0 ------- null}
- -t 0.2001032 -s 1 -d 0 -p ack -e 40 -c 0 -i 1 -a 0 -x {1.0 0.0 0 ------- null}
h -t 0.2001032 -s 1 -d 0 -p ack -e 40 -c 0 -i 1 -a 0 -x {1.0 0.0 -1 ------- null}
r -t 0.2002064 -s 1 -d 0 -p ack -e 40 -c 0 -i 1 -a 0 -x {1.0 0.0 0 ------- null}
+ -t 0.2002064 -s 0 -d 1 -p tcp -e 1040 -c 0 -i 2 -a 0 -x {0.0 1.0 1 ------- null}
- -t 0.2002064 -s 0 -d 1 -p tcp -e 1040 -c 0 -i 2 -a 0 -x {0.0 1.0 1 ------- null}
h -t 0.2002064 -s 0 -d 1 -p tcp -e 1040 -c 0 -i 2 -a 0 -x {0.0 1.0 -1 ------- null}
+ -t 0.2002064 -s 0 -d 1 -p tcp -e 1040 -c 0 -i 3 -a 0 -x {0.0 1.0 2 ------- null}
- -t 0.2002896 -s 0 -d 1 -p tcp -e 1040 -c 0 -i 3 -a 0 -x {0.0 1.0 2 ------- null}
h -t 0.2002896 -s 0 -d 1 -p tcp -e 1040 -c 0 -i 3 -a 0 -x {0.0 1.0 -1 ------- null}
r -t 0.2003896 -s 0 -d 1 -p tcp -e 1040 -c 0 -i 2 -a 0 -x {0.0 1.0 1 ------- null}
+ -t 0.2003896 -s 1 -d 0 -p ack -e 40 -c 0 -i 4 -a 0 -x {1.0 0.0 1 ------- null}
- -t 0.2003896 -s 1 -d 0 -p ack -e 40 -c 0 -i 4 -a 0 -x {1.0 0.0 1 ------- null}
h -t 0.2003896 -s 1 -d 0 -p ack -e 40 -c 0 -i 4 -a 0 -x {1.0 0.0 -1 ------- null}
r -t 0.2004728 -s 0 -d 1 -p tcp -e 1040 -c 0 -i 3 -a 0 -x {0.0 1.0 2 ------- null}
+ -t 0.2004728 -s 1 -d 0 -p ack -e 40 -c 0 -i 5 -a 0 -x {1.0 0.0 2 ------- null}
- -t 0.2004728 -s 1 -d 0 -p ack -e 40 -c 0 -i 5 -a 0 -x {1.0 0.0 2 ------- null}
h -t 0.2004728 -s 1 -d 0 -p ack -e 40 -c 0 -i 5 -a 0 -x {1.0 0.0 -1 ------- null}
r -t 0.2004928 -s 1 -d 0 -p ack -e 40 -c 0 -i 4 -a 0 -x {1.0 0.0 1 ------- null}
r -t 0.200576 -s 1 -d 0 -p ack -e 40 -c 0 -i 5 -a 0 -x {1.0 0.0 2 ------- null}
+ -t 0.200576 -s 0 -d 1 -p tcp -e 1040 -c 0 -i 6 -a 0 -x {0.0 1.0 3 ------- null}
- -t 0.200576 -s 0 -d 1 -p tcp -e 1040 -c 0 -i 6 -a 0 -x {0.0 1.0 3 ------- null}
h -t 0.200576 -s 0 -d 1 -p tcp -e 1040 -c 0 -i 6 -a 0 -x {0.0 1.0 -1 ------- null}
r -t 0.2007592 -s 0 -d 1 -p tcp -e 1040 -c 0 -i 6 -a 0 -x {0.0 1.0 3 ------- null}
+ -t 0.2007592 -s 1 -d 0 -p ack -e 40 -c 0 -i 7 -a 0 -x {1.0 0.0 3 ------- null}
- -t 0.2007592 -s 1 -d 0 -p ack -e 40 -c 0 -i 7 -a 0 -x {1.0 0.0 3 ------- null}
h -t 0.2007592 -s 1 -d 0 -p ack -e 40 -c 0 -i 7 -a 0 -x {1.0 0.0 -1 ------- null}
r -t 0.2008624 -s 1 -d 0 -p ack -e 40 -c 0 -i 7 -a 0 -x {1.0 0.0 3 ------- null}
+ -t 0.2008624 -s 0 -d 1 -p tcp -e 1040 -c 0 -i 8 -a 0 -x {0.0 1.0 4 ------- null}
- -t 0.2008624 -s 0 -d 1 -p tcp -e 1040 -c 0 -i 8 -a 0 -x {0.0 1.0 4 ------- null}
h -t 0.2008624 -s 0 -d 1 -p tcp -e 1040 -c 0 -i 8 -a 0 -x {0.0 1.0 -1 ------- null}
r -t 0.2010456 -s 0 -d 1 -p tcp -e 1040 -c 0 -i 8 -a 0 -x {0.0 1.0 4 ------- null}
+ -t 0.2010456 -s 1 -d 0 -p ack -e 40 -c 0 -i 9 -a 0 -x {1.0 0.0 4 ------- null}
- -t 0.2010456 -s 1 -d 0 -p ack -e 40 -c 0 -i 9 -a 0 -x {1.0 0.0 4 ------- null}
h -t 0.2010456 -s 1 -d 0 -p ack -e 40 -c 0 -i 9 -a 0 -x {1.0 0.0 -1 ------- null}
r -t 0.2011488 -s 1 -d 0 -p ack -e 40 -c 0 -i 9 -a 0 -x {1.0 0.0 4 ------- null}
+ -t 0.2011488 -s 0 -d 1 -p tcp -e 1040 -c 0 -i 10 -a 0 -x {0.0 1.0 5 ------- null}
- -t 0.2011488 -s 0 -d 1 -p tcp -e 1040 -c 0 -i 10 -a 0 -x {0.0 1.0 5 ------- null}
h -t 0.2011488 -s 0 -d 1 -p tcp -e 1040 -c 0 -i 10 -a 0 -x {0.0 1.0 -1 ------- null}
r -t 0.201332 -s 0 -d 1 -p tcp -e 1040 -c 0 -i 10 -a 0 -x {0.0 1.0 5 ------- null}
+ -t 0.201332 -s 1 -d 0 -p ack -e 40 -c 0 -i 11 -a 0 -x {1.0 0.0 5 ------- null}
- -t 0.201332 -s 1 -d 0 -p ack -e 40 -c 0 -i 11 -a 0 -x {1.0 0.0 5 ------- null}
h -t 0.201332 -s 1 -d 0 -p ack -e 40 -c 0 -i 11 -a 0 -x {1.0 0.0 -1 ------- null}
r -t 0.2014352 -s 1 -d 0 -p ack -e 40 -c 0 -i 11 -a 0 -x {1.0 0.0 5 ------- null}
+ -t 0.2014352 -s 0 -d 1 -p tcp -e 1040 -c 0 -i 12 -a 0 -x {0.0 1.0 6 ------- null}
- -t 0.2014352 -s 0 -d 1 -p tcp -e 1040 -c 0 -i 12 -a 0 -x {0.0 1.0 6 ------- null}
h -t 0.2014352 -s 0 -d 1 -p tcp -e 1040 -c 0 -i 12 -a 0 -x {0.0 1.0 -1 ------- null}
r -t 0.2016184 -s 0 -d 1 -p tcp -e 1040 -c 0 -i 12 -a 0 -x {0.0 1.0 6 ------- null}
+ -t 0.2016184 -s 1 -d 0 -p ack -e 40 -c 0 -i 13 -a 0 -x {1.0 0.0 6 ------- null}
- -t 0.2016184 -s 1 -d 0 -p ack -e 40 -c 0 -i 13 -a 0 -x {1.0 0.0 6 ------- null}
h -t 0.2016184 -s 1 -d 0 -p ack -e 40 -c 0 -i 13 -a 0 -x {1.0 0.0 -1 ------- null}
r -t 0.2017216 -s 1 -d 0 -p ack -e 40 -c 0 -i 13 -a 0 -x {1.0 0.0 6 ------- null}
+ -t 0.2017216 -s 0 -d 1 -p tcp -e 1040 -c 0 -i 14 -a 0 -x {0.0 1.0 7 ------- null}
- -t 0.2017216 -s 0 -d 1 -p tcp -e 1040 -c 0 -i 14 -a 0 -x {0.0 1.0 7 ------- null}
h -t 0.2017216 -s 0 -d 1 -p tcp -e 1040 -c 0 -i 14 -a 0 -x {0.0 1.0 -1 ------- null}
r -t 0.2019048 -s 0 -d 1 -p tcp -e 1040 -c 0 -i 14 -a 0 -x {0.0 1.0 7 ------- null}
+ -t 0.2019048 -s 1 -d 0 -p ack -e 40 -c 0 -i 15 -a 0 -x {1.0 0.0 7 ------- null}
- -t 0.2019048 -s 1 -d 0 -p ack -e 40 -c 0 -i 15 -a 0 -x {1.0 0.0 7 ------- null}
h -t 0.2019048 -s 1 -d 0 -p ack -e 40 -c 0 -i 15 -a 0 -x {1.0 0.0 -1 ------- null}
r -t 0.202008 -s 1 -d 0 -p ack -e 40 -c 0 -i 15 -a 0 -x {1.0 0.0 7 ------- null}
+ -t 0.202008 -s 0 -d 1 -p tcp -e 1040 -c 0 -i 16 -a 0 -x {0.0 1.0 8 ------- null}
- -t 0.202008 -s 0 -d 1 -p tcp -e 1040 -c 0 -i 16 -a 0 -x {0.0 1.0 8 ------- null}
h -t 0.202008 -s 0 -d 1 -p tcp -e 1040 -c 0 -i 16 -a 0 -x {0.0 1.0 -1 ------- null}
r -t 0.2021912 -s 0 -d 1 -p tcp -e 1040 -c 0 -i 16 -a 0 -x {0.0 1.0 8 ------- null}
+ -t 0.2021912 -s 1 -d 0 -p ack -e 40 -c 0 -i 17 -a 0 -x {1.0 0.0 8 ------- null}
- -t 0.2021912 -s 1 -d 0 -p ack -e 40 -c 0 -i 17 -a 0 -x {1.0 0.0 8 ------- null}
h -t 0.2021912 -s 1 -d 0 -p ack -e 40 -c 0 -i 17 -a 0 -x {1.0 0.0 -1 ------- null}
r -t 0.2022944 -s 1 -d 0 -p ack -e 40 -c 0 -i 17 -a 0 -x {1.0 0.0 8 ------- null}
+ -t 0.2022944 -s 0 -d 1 -p tcp -e 1040 -c 0 -i 18 -a 0 -x {0.0 1.0 9 ------- null}
- -t 0.2022944 -s 0 -d 1 -p tcp -e 1040 -c 0 -i 18 -a 0 -x {0.0 1.0 9 ------- null}
h -t 0.2022944 -s 0 -d 1 -p tcp -e 1040 -c 0 -i 18 -a 0 -x {0.0 1.0 -1 ------- null}
r -t 0.2024776 -s 0 -d 1 -p tcp -e 1040 -c 0 -i 18 -a 0 -x {0.0 1.0 9 ------- null}
+ -t 0.2024776 -s 1 -d 0 -p ack -e 40 -c 0 -i 19 -a 0 -x {1.0 0.0 9 ------- null}
- -t 0.2024776 -s 1 -d 0 -p ack -e 40 -c 0 -i 19 -a 0 -x {1.0 0.0 9 ------- null}
h -t 0.2024776 -s 1 -d 0 -p ack -e 40 -c 0 -i 19 -a 0 -x {1.0 0.0 -1 ------- null}
r -t 0.2025808 -s 1 -d 0 -p ack -e 40 -c 0 -i 19 -a 0 -x {1.0 0.0 9 ------- null}
+ -t 0.2025808 -s 0 -d 1 -p tcp -e 1040 -c 0 -i 20 -a 0 -x {0.0 1.0 10 ------- null}
- -t 0.2025808 -s 0 -d 1 -p tcp -e 1040 -c 0 -i 20 -a 0 -x {0.0 1.0 10 ------- null}
h -t 0.2025808 -s 0 -d 1 -p tcp -e 1040 -c 0 -i 20 -a 0 -x {0.0 1.0 -1 ------- null}
r -t 0.202764 -s 0 -d 1 -p tcp -e 1040 -c 0 -i 20 -a 0 -x {0.0 1.0 10 ------- null}
+ -t 0.202764 -s 1 -d 0 -p ack -e 40 -c 0 -i 21 -a 0 -x {1.0 0.0 10 ------- null}
- -t 0.202764 -s 1 -d 0 -p ack -e 40 -c 0 -i 21 -a 0 -x {1.0 0.0 10 ------- null}
h -t 0.202764 -s 1 -d 0 -p ack -e 40 -c 0 -i 21 -a 0 -x {1.0 0.0 -1 ------- null}
r -t 0.2028672 -s 1 -d 0 -p ack -e 40 -c 0 -i 21 -a 0 -x {1.0 0.0 10 ------- null}
+ -t 0.2028672 -s 0 -d 1 -p tcp -e 1040 -c 0 -i 22 -a 0 -x {0.0 1.0 11 ------- null}
- -t 0.2028672 -s 0 -d 1 -p tcp -e 1040 -c 0 -i 22 -a 0 -x {0.0 1.0 11 ------- null}
h -t 0.2028672 -s 0 -d 1 -p tcp -e 1040 -c 0 -i 22 -a 0 -x {0.0 1.0 -1 ------- null}
r -t 0.2030504 -s 0 -d 1 -p tcp -e 1040 -c 0 -i 22 -a 0 -x {0.0 1.0 11 ------- null}
+ -t 0.2030504 -s 1 -d 0 -p ack -e 40 -c 0 -i 23 -a 0 -x {1.0 0.0 11 ------- null}
- -t 0.2030504 -s 1 -d 0 -p ack -e 40 -c 0 -i 23 -a 0 -x {1.0 0.0 11 ------- null}
h -t 0.2030504 -s 1 -d 0 -p ack -e 40 -c 0 -i 23 -a 0 -x {1.0 0.0 -1 ------- null}
r -t 0.2031536 -s 1 -d 0 -p ack -e 40 -c 0 -i 23 -a 0 -x {1.0 0.0 11 ------- null}
+ -t 0.2031536 -s 0 -d 1 -p tcp -e 1040 -c 0 -i 24 -a 0 -x {0.0 1.0 12 ------- null}
- -t 0.2031536 -s 0 -d 1 -p tcp -e 1040 -c 0 -i 24 -a 0 -x {0.0 1.0 12 ------- null}
h -t 0.2031536 -s 0 -d 1 -p tcp -e 1040 -c 0 -i 24 -a 0 -x {0.0 1.0 -1 ------- null}
r -t 0.2033368 -s 0 -d 1 -p tcp -e 1040 -c 0 -i 24 -a 0 -x {0.0 1.0 12 ------- null}
+ -t 0.2033368 -s 1 -d 0 -p ack -e 40 -c 0 -i 25 -a 0 -x {1.0 0.0 12 ------- null}
- -t 0.2033368 -s 1 -d 0 -p ack -e 40 -c 0 -i 25 -a 0 -x {1.0 0.0 12 ------- null}
h -t 0.2033368 -s 1 -d 0 -p ack -e 40 -c 0 -i 25 -a 0 -x {1.0 0.0 -1 ------- null}
r -t 0.20344 -s 1 -d 0 -p ack -e 40 -c 0 -i 25 -a 0 -x {1.0 0.0 12 ------- null}
+ -t 0.20344 -s 0 -d 1 -p tcp -e 1040 -c 0 -i 26 -a 0 -x {0.0 1.0 13 ------- null}
- -t 0.20344 -s 0 -d 1 -p tcp -e 1040 -c 0 -i 26 -a 0 -x {0.0 1.0 13 ------- null}
h -t 0.20344 -s 0 -d 1 -p tcp -e 1040 -c 0 -i 26 -a 0 -x {0.0 1.0 -1 ------- null}
r -t 0.2036232 -s 0 -d 1 -p tcp -e 1040 -c 0 -i 26 -a 0 -x {0.0 1.0 13 ------- null}
+ -t 0.2036232 -s 1 -d 0 -p ack -e 40 -c 0 -i 27 -a 0 -x {1.0 0.0 13 ------- null}
- -t 0.2036232 -s 1 -d 0 -p ack -e 40 -c 0 -i 27 -a 0 -x {1.0 0.0 13 ------- null}
h -t 0.2036232 -s 1 -d 0 -p ack -e 40 -c 0 -i 27 -a 0 -x {1.0 0.0 -1 ------- null}
r -t 0.2037264 -s 1 -d 0 -p ack -e 40 -c 0 -i 27 -a 0 -x {1.0 0.0 13 ------- null}
+ -t 0.2037264 -s 0 -d 1 -p tcp -e 1040 -c 0 -i 28 -a 0 -x {0.0 1.0 14 ------- null}
- -t 0.2037264 -s 0 -d 1 -p tcp -e 1040 -c 0 -i 28 -a 0 -x {0.0 1.0 14 ------- null}
h -t 0.2037264 -s 0 -d 1 -p tcp -e 1040 -c 0 -i 28 -a 0 -x {0.0 1.0 -1 ------- null}
r -t 0.2039096 -s 0 -d 1 -p tcp -e 1040 -c 0 -i 28 -a 0 -x {0.0 1.0 14 ------- null}
+ -t 0.2039096 -s 1 -d 0 -p ack -e 40 -c 0 -i 29 -a 0 -x {1.0 0.0 14 ------- null}
- -t 0.2039096 -s 1 -d 0 -p ack -e 40 -c 0 -i 29 -a 0 -x {1.0 0.0 14 ------- null}
h -t 0.2039096 -s 1 -d 0 -p ack -e 40 -c 0 -i 29 -a 0 -x {1.0 0.0 -1 ------- null}
r -t 0.2040128 -s 1 -d 0 -p ack -e 40 -c 0 -i 29 -a 0 -x {1.0 0.0 14 ------- null}
+ -t 0.2040128 -s 0 -d 1 -p tcp -e 1040 -c 0 -i 30 -a 0 -x {0.0 1.0 15 ------- null}
- -t 0.2040128 -s 0 -d 1 -p tcp -e 1040 -c 0 -i 30 -a 0 -x {0.0 1.0 15 ------- null}
h -t 0.2040128 -s 0 -d 1 -p tcp -e 1040 -c 0 -i 30 -a 0 -x {0.0 1.0 -1 ------- null}
r -t 0.204196 -s 0 -d 1 -p tcp -e 1040 -c 0 -i 30 -a 0 -x {0.0 1.0 15 ------- null}
+ -t 0.204196 -s 1 -d 0 -p ack -e 40 -c 0 -i 31 -a 0 -x {1.0 0.0 15 ------- null}
- -t 0.204196 -s 1 -d 0 -p ack -e 40 -c 0 -i 31 -a 0 -x {1.0 0.0 15 ------- null}
h -t 0.204196 -s 1 -d 0 -p ack -e 40 -c 0 -i 31 -a 0 -x {1.0 0.0 -1 ------- null}
r -t 0.2042992 -s 1 -d 0 -p ack -e 40 -c 0 -i 31 -a 0 -x {1.0 0.0 15 ------- null}
+ -t 0.2042992 -s 0 -d 1 -p tcp -e 1040 -c 0 -i 32 -a 0 -x {0.0 1.0 16 ------- null}
- -t 0.2042992 -s 0 -d 1 -p tcp -e 1040 -c 0 -i 32 -a 0 -x {0.0 1.0 16 ------- null}
h -t 0.2042992 -s 0 -d 1 -p tcp -e 1040 -c 0 -i 32 -a 0 -x {0.0 1.0 -1 ------- null}
r -t 0.2044824 -s 0 -d 1 -p tcp -e 1040 -c 0 -i 32 -a 0 -x {0.0 1.0 16 ------- null}
+ -t 0.2044824 -s 1 -d 0 -p ack -e 40 -c 0 -i 33 -a 0 -x {1.0 0.0 16 ------- null}
- -t 0.2044824 -s 1 -d 0 -p ack -e 40 -c 0 -i 33 -a 0 -x {1.0 0.0 16 ------- null}
h -t 0.2044824 -s 1 -d 0 -p ack -e 40 -c 0 -i 33 -a 0 -x {1.0 0.0 -1 ------- null}
r -t 0.2045856 -s 1 -d 0 -p ack -e 40 -c 0 -i 33 -a 0 -x {1.0 0.0 16 ------- null}
+ -t 0.2045856 -s 0 -d 1 -p tcp -e 1040 -c 0 -i 34 -a 0 -x {0.0 1.0 17 ------- null}
- -t 0.2045856 -s 0 -d 1 -p tcp -e 1040 -c 0 -i 34 -a 0 -x {0.0 1.0 17 ------- null}
h -t 0.2045856 -s 0 -d 1 -p tcp -e 1040 -c 0 -i 34 -a 0 -x {0.0 1.0 -1 ------- null}
r -t 0.2047688 -s 0 -d 1 -p tcp -e 1040 -c 0 -i 34 -a 0 -x {0.0 1.0 17 ------- null}
+ -t 0.2047688 -s 1 -d 0 -p ack -e 40 -c 0 -i 35 -a 0 -x {1.0 0.0 17 ------- null}
- -t 0.2047688 -s 1 -d 0 -p ack -e 40 -c 0 -i 35 -a 0 -x {1.0 0.0 17 ------- null}
h -t 0.2047688 -s 1 -d 0 -p ack -e 40 -c 0 -i 35 -a 0 -x {1.0 0.0 -1 ------- null}
r -t 0.204872 -s 1 -d 0 -p ack -e 40 -c 0 -i 35 -a 0 -x {1.0 0.0 17 ------- null}
+ -t 0.204872 -s 0 -d 1 -p tcp -e 1040 -c 0 -i 36 -a 0 -x {0.0 1.0 18 ------- null}
- -t 0.204872 -s 0 -d 1 -p tcp -e 1040 -c 0 -i 36 -a 0 -x {0.0 1.0 18 ------- null}
h -t 0.204872 -s 0 -d 1 -p tcp -e 1040 -c 0 -i 36 -a 0 -x {0.0 1.0 -1 ------- null}
r -t 0.2050552 -s 0 -d 1 -p tcp -e 1040 -c 0 -i 36 -a 0 -x {0.0 1.0 18 ------- null}
+ -t 0.2050552 -s 1 -d 0 -p ack -e 40 -c 0 -i 37 -a 0 -x {1.0 0.0 18 ------- null}
- -t 0.2050552 -s 1 -d 0 -p ack -e 40 -c 0 -i 37 -a 0 -x {1.0 0.0 18 ------- null}
h -t 0.2050552 -s 1 -d 0 -p ack -e 40 -c 0 -i 37 -a 0 -x {1.0 0.0 -1 ------- null}
r -t 0.2051584 -s 1 -d 0 -p ack -e 40 -c 0 -i 37 -a 0 -x {1.0 0.0 18 ------- null}
+ -t 0.2051584 -s 0 -d 1 -p tcp -e 1040 -c 0 -i 38 -a 0 -x {0.0 1.0 19 ------- null}
- -t 0.2051584 -s 0 -d 1 -p tcp -e 1040 -c 0 -i 38 -a 0 -x {0.0 1.0 19 ------- null}
h -t 0.2051584 -s 0 -d 1 -p tcp -e 1040 -c 0 -i 38 -a 0 -x {0.0 1.0 -1 ------- null}
r -t 0.2053416 -s 0 -d 1 -p tcp -e 1040 -c 0 -i 38 -a 0 -x {0.0 1.0 19 ------- null}
+ -t 0.2053416 -s 1 -d 0 -p ack -e 40 -c 0 -i 39 -a 0 -x {1.0 0.0 19 ------- null}
- -t 0.2053416 -s 1 -d 0 -p ack -e 40 -c 0 -i 39 -a 0 -x {1.0 0.0 19 ------- null}
h -t 0.2053416 -s 1 -d 0 -p ack -e 40 -c 0 -i 39 -a 0 -x {1.0 0.0 -1 ------- null}
r -t 0.2054448 -s 1 -d 0 -p ack -e 40 -c 0 -i 39 -a 0 -x {1.0 0.0 19 ------- null}
+ -t 0.2054448 -s 0 -d 1 -p tcp -e 1040 -c 0 -i 40 -a 0 -x {0.0 1.0 20 ------- null}
- -t 0.2054448 -s 0 -d 1 -p tcp -e 1040 -c 0 -i 40 -a 0 -x {0.0 1.0 20 ------- null}
h -t 0.2054448 -s 0 -d 1 -p tcp -e 1040 -c 0 -i 40 -a 0 -x {0.0 1.0 -1 ------- null}
r -t 0.205628 -s 0 -d 1 -p tcp -e 1040 -c 0 -i 40 -a 0 -x {0.0 1.0 20 ------- null}
+ -t 0.205628 -s 1 -d 0 -p ack -e 40 -c 0 -i 41 -a 0 -x {1.0 0.0 20 ------- null}
- -t 0.205628 -s 1 -d 0 -p ack -e 40 -c 0 -i 41 -a 0 -x {1.0 0.0 20 ------- null}
h -t 0.205628 -s 1 -d 0 -p ack -e 40 -c 0 -i 41 -a 0 -x {1.0 0.0 -1 ------- null}
r -t 0.2057312 -s 1 -d 0 -p ack -e 40 -c 0 -i 41 -a 0 -x {1.0 0.0 20 ------- null}
+ -t 0.2057312 -s 0 -d 1 -p tcp -e 1040 -c 0 -i 42 -a 0 -x {0.0 1.0 21 ------- null}
- -t 0.2057312 -s 0 -d 1 -p tcp -e 1040 -c 0 -i 42 -a 0 -x {0.0 1.0 21 ------- null}
h -t 0.2057312 -s 0 -d 1 -p tcp -e 1040 -c 0 -i 42 -a 0 -x {0.0 1.0 -1 ------- null}
r -t 0.2059144 -s 0 -d 1 -p tcp -e 1040 -c 0 -i 42 -a 0 -x {0.0 1.0 21 ------- null}
+ -t 0.2059144 -s 1 -d 0 -p ack -e 40 -c 0 -i 43 -a 0 -x {1.0 0.0 21 ------- null}
- -t 0.2059144 -s 1 -d 0 -p ack -e 40 -c 0 -i 43 -a 0 -x {1.0 0.0 21 ------- null}
h -t 0.2059144 -s 1 -d 0 -p ack -e 40 -c 0 -i 43 -a 0 -x {1.0 0.0 -1 ------- null}
r -t 0.2060176 -s 1 -d 0 -p ack -e 40 -c 0 -i 43 -a 0 -x {1.0 0.0 21 ------- null}
+ -t 0.2060176 -s 0 -d 1 -p tcp -e 1040 -c 0 -i 44 -a 0 -x {0.0 1.0 22 ------- null}
- -t 0.2060176 -s 0 -d 1 -p tcp -e 1040 -c 0 -i 44 -a 0 -x {0.0 1.0 22 ------- null}
h -t 0.2060176 -s 0 -d 1 -p tcp -e 1040 -c 0 -i 44 -a 0 -x {0.0 1.0 -1 ------- null}
r -t 0.2062008 -s 0 -d 1 -p tcp -e 1040 -c 0 -i 44 -a 0 -x {0.0 1.0 22 ------- null}
+ -t 0.2062008 -s 1 -d 0 -p ack -e 40 -c 0 -i 45 -a 0 -x {1.0 0.0 22 ------- null}
- -t 0.2062008 -s 1 -d 0 -p ack -e 40 -c 0 -i 45 -a 0 -x {1.0 0.0 22 ------- null}
h -t 0.2062008 -s 1 -d 0 -p ack -e 40 -c 0 -i 45 -a 0 -x {1.0 0.0 -1 ------- null}
r -t 0.206304 -s 1 -d 0 -p ack -e 40 -c 0 -i 45 -a 0 -x {1.0 0.0 22 ------- null}
+ -t 0.206304 -s 0 -d 1 -p tcp -e 1040 -c 0 -i 46 -a 0 -x {0.0 1.0 23 ------- null}
- -t 0.206304 -s 0 -d 1 -p tcp -e 1040 -c 0 -i 46 -a 0 -x {0.0 1.0 23 ------- null}
h -t 0.206304 -s 0 -d 1 -p tcp -e 1040 -c 0 -i 46 -a 0 -x {0.0 1.0 -1 ------- null}
r -t 0.2064872 -s 0 -d 1 -p tcp -e 1040 -c 0 -i 46 -a 0 -x {0.0 1.0 23 ------- null}
+ -t 0.2064872 -s 1 -d 0 -p ack -e 40 -c 0 -i 47 -a 0 -x {1.0 0.0 23 ------- null}
- -t 0.2064872 -s 1 -d 0 -p ack -e 40 -c 0 -i 47 -a 0 -x {1.0 0.0 23 ------- null}
h -t 0.2064872 -s 1 -d 0 -p ack -e 40 -c 0 -i 47 -a 0 -x {1.0 0.0 -1 ------- null}
r -t 0.2065904 -s 1 -d 0 -p ack -e 40 -c 0 -i 47 -a 0 -x {1.0 0.0 23 ------- null}
+ -t 0.2065904 -s 0 -d 1 -p tcp -e 1040 -c 0 -i 48 -a 0 -x {0.0 1.0 24 ------- null}
- -t 0.2065904 -s 0 -d 1 -p tcp -e 1040 -c 0 -i 48 -a 0 -x {0.0 1.0 24 ------- null}
h -t 0.2065904 -s 0 -d 1 -p tcp -e 1040 -c 0 -i 48 -a 0 -x {0.0 1.0 -1 ------- null}
r -t 0.2067736 -s 0 -d 1 -p tcp -e 1040 -c 0 -i 48 -a 0 -x {0.0 1.0 24 ------- null}
+ -t 0.2067736 -s 1 -d 0 -p ack -e 40 -c 0 -i 49 -a 0 -x {1.0 0.0 24 ------- null}
- -t 0.2067736 -s 1 -d 0 -p ack -e 40 -c 0 -i 49 -a 0 -x {1.0 0.0 24 ------- null}
h -t 0.2067736 -s 1 -d 0 -p ack -e 40 -c 0 -i 49 -a 0 -x {1.0 0.0 -1 ------- null}
r -t 0.2068768 -s 1 -d 0 -p ack -e 40 -c 0 -i 49 -a 0 -x {1.0 0.0 24 ------- null}
+ -t 0.2068768 -s 0 -d 1 -p tcp -e 1040 -c 0 -i 50 -a 0 -x {0.0 1.0 25 ------- null}
- -t 0.2068768 -s 0 -d 1 -p tcp -e 1040 -c 0 -i 50 -a 0 -x {0.0 1.0 25 ------- null}
h -t 0.2068768 -s 0 -d 1 -p tcp -e 1040 -c 0 -i 50 -a 0 -x {0.0 1.0 -1 ------- null}
r -t 0.20706 -s 0 -d 1 -p tcp -e 1040 -c 0 -i 50 -a 0 -x {0.0 1.0 25 ------- null}
+ -t 0.20706 -s 1 -d 0 -p ack -e 40 -c 0 -i 51 -a 0 -x {1.0 0.0 25 ------- null}
- -t 0.20706 -s 1 -d 0 -p ack -e 40 -c 0 -i 51 -a 0 -x {1.0 0.0 25 ------- null}
h -t 0.20706 -s 1 -d 0 -p ack -e 40 -c 0 -i 51 -a 0 -x {1.0 0.0 -1 ------- null}
r -t 0.2071632 -s 1 -d 0 -p ack -e 40 -c 0 -i 51 -a 0 -x {1.0 0.0 25 ------- null}
+ -t 0.2071632 -s 0 -d 1 -p tcp -e 1040 -c 0 -i 52 -a 0 -x {0.0 1.0 26 ------- null}
- -t 0.2071632 -s 0 -d 1 -p tcp -e 1040 -c 0 -i 52 -a 0 -x {0.0 1.0 26 ------- null}
h -t 0.2071632 -s 0 -d 1 -p tcp -e 1040 -c 0 -i 52 -a 0 -x {0.0 1.0 -1 ------- null}
r -t 0.2073464 -s 0 -d 1 -p tcp -e 1040 -c 0 -i 52 -a 0 -x {0.0 1.0 26 ------- null}
+ -t 0.2073464 -s 1 -d 0 -p ack -e 40 -c 0 -i 53 -a 0 -x {1.0 0.0 26 ------- null}
- -t 0.2073464 -s 1 -d 0 -p ack -e 40 -c 0 -i 53 -a 0 -x {1.0 0.0 26 ------- null}
h -t 0.2073464 -s 1 -d 0 -p ack -e 40 -c 0 -i 53 -a 0 -x {1.0 0.0 -1 ------- null}
r -t 0.2074496 -s 1 -d 0 -p ack -e 40 -c 0 -i 53 -a 0 -x {1.0 0.0 26 ------- null}
+ -t 0.2074496 -s 0 -d 1 -p tcp -e 1040 -c 0 -i 54 -a 0 -x {0.0 1.0 27 ------- null}
- -t 0.2074496 -s 0 -d 1 -p tcp -e 1040 -c 0 -i 54 -a 0 -x {0.0 1.0 27 ------- null}
h -t 0.2074496 -s 0 -d 1 -p tcp -e 1040 -c 0 -i 54 -a 0 -x {0.0 1.0 -1 ------- null}
r -t 0.2076328 -s 0 -d 1 -p tcp -e 1040 -c 0 -i 54 -a 0 -x {0.0 1.0 27 ------- null}
+ -t 0.2076328 -s 1 -d 0 -p ack -e 40 -c 0 -i 55 -a 0 -x {1.0 0.0 27 ------- null}
- -t 0.2076328 -s 1 -d 0 -p ack -e 40 -c 0 -i 55 -a 0 -x {1.0 0.0 27 ------- null}
h -t 0.2076328 -s 1 -d 0 -p ack -e 40 -c 0 -i 55 -a 0 -x {1.0 0.0 -1 ------- null}
r -t 0.207736 -s 1 -d 0 -p ack -e 40 -c 0 -i 55 -a 0 -x {1.0 0.0 27 ------- null}
+ -t 0.207736 -s 0 -d 1 -p tcp -e 1040 -c 0 -i 56 -a 0 -x {0.0 1.0 28 ------- null}
- -t 0.207736 -s 0 -d 1 -p tcp -e 1040 -c 0 -i 56 -a 0 -x {0.0 1.0 28 ------- null}
h -t 0.207736 -s 0 -d 1 -p tcp -e 1040 -c 0 -i 56 -a 0 -x {0.0 1.0 -1 ------- null}
r -t 0.2079192 -s 0 -d 1 -p tcp -e 1040 -c 0 -i 56 -a 0 -x {0.0 1.0 28 ------- null}
+ -t 0.2079192 -s 1 -d 0 -p ack -e 40 -c 0 -i 57 -a 0 -x {1.0 0.0 28 ------- null}
- -t 0.2079192 -s 1 -d 0 -p ack -e 40 -c 0 -i 57 -a 0 -x {1.0 0.0 28 ------- null}
h -t 0.2079192 -s 1 -d 0 -p ack -e 40 -c 0 -i 57 -a 0 -x {1.0 0.0 -1 ------- null}
r -t 0.2080224 -s 1 -d 0 -p ack -e 40 -c 0 -i 57 -a 0 -x {1.0 0.0 28 ------- null}
+ -t 0.2080224 -s 0 -d 1 -p tcp -e 1040 -c 0 -i 58 -a 0 -x {0.0 1.0 29 ------- null}
- -t 0.2080224 -s 0 -d 1 -p tcp -e 1040 -c 0 -i 58 -a 0 -x {0.0 1.0 29 ------- null}
h -t 0.2080224 -s 0 -d 1 -p tcp -e 1040 -c 0 -i 58 -a 0 -x {0.0 1.0 -1 ------- null}
r -t 0.2082056 -s 0 -d 1 -p tcp -e 1040 -c 0 -i 58 -a 0 -x {0.0 1.0 29 ------- null}
+ -t 0.2082056 -s 1 -d 0 -p ack -e 40 -c 0 -i 59 -a 0 -x {1.0 0.0 29 ------- null}
- -t 0.2082056 -s 1 -d 0 -p ack -e 40 -c 0 -i 59 -a 0 -x {1.0 0.0 29 ------- null}
h -t 0.2082056 -s 1 -d 0 -p ack -e 40 -c 0 -i 59 -a 0 -x {1.0 0.0 -1 ------- null}
r -t 0.2083088 -s 1 -d 0 -p ack -e 40 -c 0 -i 59 -a 0 -x {1.0 0.0 29 ------- null}
+ -t 0.2083088 -s 0 -d 1 -p tcp -e 1040 -c 0 -i 60 -a 0 -x {0.0 1.0 30 ------- null}
- -t 0.2083088 -s 0 -d 1 -p tcp -e 1040 -c 0 -i 60 -a 0 -x {0.0 1.0 30 ------- null}
h -t 0.2083088 -s 0 -d 1 -p tcp -e 1040 -c 0 -i 60 -a 0 -x {0.0 1.0 -1 ------- null}
r -t 0.208492 -s 0 -d 1 -p tcp -e 1040 -c 0 -i 60 -a 0 -x {0.0 1.0 30 ------- null}
+ -t 0.208492 -s 1 -d 0 -p ack -e 40 -c 0 -i 61 -a 0 -x {1.0 0.0 30 ------- null}
- -t 0.208492 -s 1 -d 0 -p ack -e 40 -c 0 -i 61 -a 0 -x {1.0 0.0 30 ------- null}
h -t 0.208492 -s 1 -d 0 -p ack -e 40 -c 0 -i 61 -a 0 -x {1.0 0.0 -1 ------- null}
r -t 0.2085952 -s 1 -d 0 -p ack -e 40 -c 0 -i 61 -a 0 -x {1.0 0.0 30 ------- null}
+ -t 0.2085952 -s 0 -d 1 -p tcp -e 1040 -c 0 -i 62 -a 0 -x {0.0 1.0 31 ------- null}
- -t 0.2085952 -s 0 -d 1 -p tcp -e 1040 -c 0 -i 62 -a 0 -x {0.0 1.0 31 ------- null}
h -t 0.2085952 -s 0 -d 1 -p tcp -e 1040 -c 0 -i 62 -a 0 -x {0.0 1.0 -1 ------- null}
r -t 0.2087784 -s 0 -d 1 -p tcp -e 1040 -c 0 -i 62 -a 0 -x {0.0 1.0 31 ------- null}
+ -t 0.2087784 -s 1 -d 0 -p ack -e 40 -c 0 -i 63 -a 0 -x {1.0 0.0 31 ------- null}
- -t 0.2087784 -s 1 -d 0 -p ack -e 40 -c 0 -i 63 -a 0 -x {1.0 0.0 31 ------- null}
h -t 0.2087784 -s 1 -d 0 -p ack -e 40 -c 0 -i 63 -a 0 -x {1.0 0.0 -1 ------- null}
r -t 0.2088816 -s 1 -d 0 -p ack -e 40 -c 0 -i 63 -a 0 -x {1.0 0.0 31 ------- null}
+ -t 0.2088816 -s 0 -d 1 -p tcp -e 1040 -c 0 -i 64 -a 0 -x {0.0 1.0 32 ------- null}
- -t 0.2088816 -s 0 -d 1 -p tcp -e 1040 -c 0 -i 64 -a 0 -x {0.0 1.0 32 ------- null}
h -t 0.2088816 -s 0 -d 1 -p tcp -e 1040 -c 0 -i 64 -a 0 -x {0.0 1.0 -1 ------- null}
r -t 0.2090648 -s 0 -d 1 -p tcp -e 1040 -c 0 -i 64 -a 0 -x {0.0 1.0 32 ------- null}
+ -t 0.2090648 -s 1 -d 0 -p ack -e 40 -c 0 -i 65 -a 0 -x {1.0 0.0 32 ------- null}
- -t 0.2090648 -s 1 -d 0 -p ack -e 40 -c 0 -i 65 -a 0 -x {1.0 0.0 32 ------- null}
h -t 0.2090648 -s 1 -d 0 -p ack -e 40 -c 0 -i 65 -a 0 -x {1.0 0.0 -1 ------- null}
r -t 0.209168 -s 1 -d 0 -p ack -e 40 -c 0 -i 65 -a 0 -x {1.0 0.0 32 ------- null}
+ -t 0.209168 -s 0 -d 1 -p tcp -e 1040 -c 0 -i 66 -a 0 -x {0.0 1.0 33 ------- null}
- -t 0.209168 -s 0 -d 1 -p tcp -e 1040 -c 0 -i 66 -a 0 -x {0.0 1.0 33 ------- null}
h -t 0.209168 -s 0 -d 1 -p tcp -e 1040 -c 0 -i 66 -a 0 -x {0.0 1.0 -1 ------- null}
r -t 0.2093512 -s 0 -d 1 -p tcp -e 1040 -c 0 -i 66 -a 0 -x {0.0 1.0 33 ------- null}
+ -t 0.2093512 -s 1 -d 0 -p ack -e 40 -c 0 -i 67 -a 0 -x {1.0 0.0 33 ------- null}
- -t 0.2093512 -s 1 -d 0 -p ack -e 40 -c 0 -i 67 -a 0 -x {1.0 0.0 33 ------- null}
h -t 0.2093512 -s 1 -d 0 -p ack -e 40 -c 0 -i 67 -a 0 -x {1.0 0.0 -1 ------- null}
r -t 0.2094544 -s 1 -d 0 -p ack -e 40 -c 0 -i 67 -a 0 -x {1.0 0.0 33 ------- null}
+ -t 0.2094544 -s 0 -d 1 -p tcp -e 1040 -c 0 -i 68 -a 0 -x {0.0 1.0 34 ------- null}
- -t 0.2094544 -s 0 -d 1 -p tcp -e 1040 -c 0 -i 68 -a 0 -x {0.0 1.0 34 ------- null}
h -t 0.2094544 -s 0 -d 1 -p tcp -e 1040 -c 0 -i 68 -a 0 -x {0.0 1.0 -1 ------- null}
r -t 0.2096376 -s 0 -d 1 -p tcp -e 1040 -c 0 -i 68 -a 0 -x {0.0 1.0 34 ------- null}
+ -t 0.2096376 -s 1 -d 0 -p ack -e 40 -c 0 -i 69 -a 0 -x {1.0 0.0 34 ------- null}
- -t 0.2096376 -s 1 -d 0 -p ack -e 40 -c 0 -i 69 -a 0 -x {1.0 0.0 34 ------- null}
h -t 0.2096376 -s 1 -d 0 -p ack -e 40 -c 0 -i 69 -a 0 -x {1.0 0.0 -1 ------- null}
r -t 0.2097408 -s 1 -d 0 -p ack -e 40 -c 0 -i 69 -a 0 -x {1.0 0.0 34 ------- null}
+ -t 0.2097408 -s 0 -d 1 -p tcp -e 1040 -c 0 -i 70 -a 0 -x {0.0 1.0 35 ------- null}
- -t 0.2097408 -s 0 -d 1 -p tcp -e 1040 -c 0 -i 70 -a 0 -x {0.0 1.0 35 ------- null}
h -t 0.2097408 -s 0 -d 1 -p tcp -e 1040 -c 0 -i 70 -a 0 -x {0.0 1.0 -1 ------- null}
r -t 0.209924 -s 0 -d 1 -p tcp -e 1040 -c 0 -i 70 -a 0 -x {0.0 1.0 35 ------- null}
+ -t 0.209924 -s 1 -d 0 -p ack -e 40 -c 0 -i 71 -a 0 -x {1.0 0.0 35 ------- null}
- -t 0.209924 -s 1 -d 0 -p ack -e 40 -c 0 -i 71 -a 0 -x {1.0 0.0 35 ------- null}
h -t 0.209924 -s 1 -d 0 -p ack -e 40 -c 0 -i 71 -a 0 -x {1.0 0.0 -1 ------- null}
r -t 0.2100272 -s 1 -d 0 -p ack -e 40 -c 0 -i 71 -a 0 -x {1.0 0.0 35 ------- null}
+ -t 0.2100272 -s 0 -d 1 -p tcp -e 1040 -c 0 -i 72 -a 0 -x {0.0 1.0 36 ------- null}
- -t 0.2100272 -s 0 -d 1 -p tcp -e 1040 -c 0 -i 72 -a 0 -x {0.0 1.0 36 ------- null}
h -t 0.2100272 -s 0 -d 1 -p tcp -e 1040 -c 0 -i 72 -a 0 -x {0.0 1.0 -1 ------- null}
r -t 0.2102104 -s 0 -d 1 -p tcp -e 1040 -c 0 -i 72 -a 0 -x {0.0 1.0 36 ------- null}
+ -t 0.2102104 -s 1 -d 0 -p ack -e 40 -c 0 -i 73 -a 0 -x {1.0 0.0 36 ------- null}
- -t 0.2102104 -s 1 -d 0 -p ack -e 40 -c 0 -i 73 -a 0 -x {1.0 0.0 36 ------- null}
h -t 0.2102104 -s 1 -d 0 -p ack -e 40 -c 0 -i 73 -a 0 -x {1.0 0.0 -1 ------- null}
r -t 0.2103136 -s 1 -d 0 -p ack -e 40 -c 0 -i 73 -a 0 -x {1.0 0.0 36 ------- null}
+ -t 0.2103136 -s 0 -d 1 -p tcp -e 1040 -c 0 -i 74 -a 0 -x {0.0 1.0 37 ------- null}
- -t 0.2103136 -s 0 -d 1 -p tcp -e 1040 -c 0 -i 74 -a 0 -x {0.0 1.0 37 ------- null}
h -t 0.2103136 -s 0 -d 1 -p tcp -e 1040 -c 0 -i 74 -a 0 -x {0.0 1.0 -1 ------- null}
r -t 0.2104968 -s 0 -d 1 -p tcp -e 1040 -c 0 -i 74 -a 0 -x {0.0 1.0 37 ------- null}
+ -t 0.2104968 -s 1 -d 0 -p ack -e 40 -c 0 -i 75 -a 0 -x {1.0 0.0 37 ------- null}
- -t 0.2104968 -s 1 -d 0 -p ack -e 40 -c 0 -i 75 -a 0 -x {1.0 0.0 37 ------- null}
h -t 0.2104968 -s 1 -d 0 -p ack -e 40 -c 0 -i 75 -a 0 -x {1.0 0.0 -1 ------- null}
r -t 0.2106 -s 1 -d 0 -p ack -e 40 -c 0 -i 75 -a 0 -x {1.0 0.0 37 ------- null}
+ -t 0.2106 -s 0 -d 1 -p tcp -e 1040 -c 0 -i 76 -a 0 -x {0.0 1.0 38 ------- null}
- -t 0.2106 -s 0 -d 1 -p tcp -e 1040 -c 0 -i 76 -a 0 -x {0.0 1.0 38 ------- null}
h -t 0.2106 -s 0 -d 1 -p tcp -e 1040 -c 0 -i 76 -a 0 -x {0.0 1.0 -1 ------- null}
r -t 0.2107832 -s 0 -d 1 -p tcp -e 1040 -c 0 -i 76 -a 0 -x {0.0 1.0 38 ------- null}
+ -t 0.2107832 -s 1 -d 0 -p ack -e 40 -c 0 -i 77 -a 0 -x {1.0 0.0 38 ------- null}
- -t 0.2107832 -s 1 -d 0 -p ack -e 40 -c 0 -i 77 -a 0 -x {1.0 0.0 38 ------- null}
h -t 0.2107832 -s 1 -d 0 -p ack -e 40 -c 0 -i 77 -a 0 -x {1.0 0.0 -1 ------- null}
r -t 0.2108864 -s 1 -d 0 -p ack -e 40 -c 0 -i 77 -a 0 -x {1.0 0.0 38 ------- null}
+ -t 0.2108864 -s 0 -d 1 -p tcp -e 1040 -c 0 -i 78 -a 0 -x {0.0 1.0 39 ------- null}
- -t 0.2108864 -s 0 -d 1 -p tcp -e 1040 -c 0 -i 78 -a 0 -x {0.0 1.0 39 ------- null}
h -t 0.2108864 -s 0 -d 1 -p tcp -e 1040 -c 0 -i 78 -a 0 -x {0.0 1.0 -1 ------- null}
r -t 0.2110696 -s 0 -d 1 -p tcp -e 1040 -c 0 -i 78 -a 0 -x {0.0 1.0 39 ------- null}
+ -t 0.2110696 -s 1 -d 0 -p ack -e 40 -c 0 -i 79 -a 0 -x {1.0 0.0 39 ------- null}
- -t 0.2110696 -s 1 -d 0 -p ack -e 40 -c 0 -i 79 -a 0 -x {1.0 0.0 39 ------- null}
h -t 0.2110696 -s 1 -d 0 -p ack -e 40 -c 0 -i 79 -a 0 -x {1.0 0.0 -1 ------- null}
r -t 0.2111728 -s 1 -d 0 -p ack -e 40 -c 0 -i 79 -a 0 -x {1.0 0.0 39 ------- null}
+ -t 0.2111728 -s 0 -d 1 -p tcp -e 1040 -c 0 -i 80 -a 0 -x {0.0 1.0 40 ------- null}
- -t 0.2111728 -s 0 -d 1 -p tcp -e 1040 -c 0 -i 80 -a 0 -x {0.0 1.0 40 ------- null}
h -t 0.2111728 -s 0 -d 1 -p tcp -e 1040 -c 0 -i 80 -a 0 -x {0.0 1.0 -1 ------- null}
r -t 0.211356 -s 0 -d 1 -p tcp -e 1040 -c 0 -i 80 -a 0 -x {0.0 1.0 40 ------- null}
+ -t 0.211356 -s 1 -d 0 -p ack -e 40 -c 0 -i 81 -a 0 -x {1.0 0.0 40 ------- null}
- -t 0.211356 -s 1 -d 0 -p ack -e 40 -c 0 -i 81 -a 0 -x {1.0 0.0 40 ------- null}
h -t 0.211356 -s 1 -d 0 -p ack -e 40 -c 0 -i 81 -a 0 -x {1.0 0.0 -1 ------- null}
r -t 0.2114592 -s 1 -d 0 -p ack -e 40 -c 0 -i 81 -a 0 -x {1.0 0.0 40 ------- null}
+ -t 0.2114592 -s 0 -d 1 -p tcp -e 1040 -c 0 -i 82 -a 0 -x {0.0 1.0 41 ------- null}
- -t 0.2114592 -s 0 -d 1 -p tcp -e 1040 -c 0 -i 82 -a 0 -x {0.0 1.0 41 ------- null}
h -t 0.2114592 -s 0 -d 1 -p tcp -e 1040 -c 0 -i 82 -a 0 -x {0.0 1.0 -1 ------- null}
r -t 0.2116424 -s 0 -d 1 -p tcp -e 1040 -c 0 -i 82 -a 0 -x {0.0 1.0 41 ------- null}
+ -t 0.2116424 -s 1 -d 0 -p ack -e 40 -c 0 -i 83 -a 0 -x {1.0 0.0 41 ------- null}
- -t 0.2116424 -s 1 -d 0 -p ack -e 40 -c 0 -i 83 -a 0 -x {1.0 0.0 41 ------- null}
h -t 0.2116424 -s 1 -d 0 -p ack -e 40 -c 0 -i 83 -a 0 -x {1.0 0.0 -1 ------- null}
r -t 0.2117456 -s 1 -d 0 -p ack -e 40 -c 0 -i 83 -a 0 -x {1.0 0.0 41 ------- null}
+ -t 0.2117456 -s 0 -d 1 -p tcp -e 1040 -c 0 -i 84 -a 0 -x {0.0 1.0 42 ------- null}
- -t 0.2117456 -s 0 -d 1 -p tcp -e 1040 -c 0 -i 84 -a 0 -x {0.0 1.0 42 ------- null}
h -t 0.2117456 -s 0 -d 1 -p tcp -e 1040 -c 0 -i 84 -a 0 -x {0.0 1.0 -1 ------- null}
r -t 0.2119288 -s 0 -d 1 -p tcp -e 1040 -c 0 -i 84 -a 0 -x {0.0 1.0 42 ------- null}
+ -t 0.2119288 -s 1 -d 0 -p ack -e 40 -c 0 -i 85 -a 0 -x {1.0 0.0 42 ------- null}
- -t 0.2119288 -s 1 -d 0 -p ack -e 40 -c 0 -i 85 -a 0 -x {1.0 0.0 42 ------- null}
h -t 0.2119288 -s 1 -d 0 -p ack -e 40 -c 0 -i 85 -a 0 -x {1.0 0.0 -1 ------- null}
r -t 0.212032 -s 1 -d 0 -p ack -e 40 -c 0 -i 85 -a 0 -x {1.0 0.0 42 ------- null}
+ -t 0.212032 -s 0 -d 1 -p tcp -e 1040 -c 0 -i 86 -a 0 -x {0.0 1.0 43 ------- null}
- -t 0.212032 -s 0 -d 1 -p tcp -e 1040 -c 0 -i 86 -a 0 -x {0.0 1.0 43 ------- null}
h -t 0.212032 -s 0 -d 1 -p tcp -e 1040 -c 0 -i 86 -a 0 -x {0.0 1.0 -1 ------- null}
r -t 0.2122152 -s 0 -d 1 -p tcp -e 1040 -c 0 -i 86 -a 0 -x {0.0 1.0 43 ------- null}
+ -t 0.2122152 -s 1 -d 0 -p ack -e 40 -c 0 -i 87 -a 0 -x {1.0 0.0 43 ------- null}
- -t 0.2122152 -s 1 -d 0 -p ack -e 40 -c 0 -i 87 -a 0 -x {1.0 0.0 43 ------- null}
h -t 0.2122152 -s 1 -d 0 -p ack -e 40 -c 0 -i 87 -a 0 -x {1.0 0.0 -1 ------- null}
r -t 0.2123184 -s 1 -d 0 -p ack -e 40 -c 0 -i 87 -a 0 -x {1.0 0.0 43 ------- null}
+ -t 0.2123184 -s 0 -d 1 -p tcp -e 1040 -c 0 -i 88 -a 0 -x {0.0 1.0 44 ------- null}
- -t 0.2123184 -s 0 -d 1 -p tcp -e 1040 -c 0 -i 88 -a 0 -x {0.0 1.0 44 ------- null}
h -t 0.2123184 -s 0 -d 1 -p tcp -e 1040 -c 0 -i 88 -a 0 -x {0.0 1.0 -1 ------- null}
r -t 0.2125016 -s 0 -d 1 -p tcp -e 1040 -c 0 -i 88 -a 0 -x {0.0 1.0 44 ------- null}