V -t * -v 1.0a5 -a 0
A -t * -n 1 -p 0 -o 0x7fffffff -c 30 -a 1
A -t * -h 1 -m 1073741823 -s 0
n -t * -a 0 -s 0 -S UP -v circle -c black -i black
n -t * -a 1 -s 1 -S UP -v circle -c black -i black
l -t * -s 0 -d 1 -S UP -r 500000000 -D 0.0001 -c black
+ -t 0 -s 0 -d 1 -p tcp -e 40 -c 0 -i 0 -a 0 -x {0.0 1.0 0 C------ null}
- -t 0 -s 0 -d 1 -p tcp -e 40 -c 0 -i 0 -a 0 -x {0.0 1.0 0 C------ null}
h -t 0 -s 0 -d 1 -p tcp -e 40 -c 0 -i 0 -a 0 -x {0.0 1.0 -1 C------ null}
r -t 0.00010064 -s 0 -d 1 -p tcp -e 40 -c 0 -i 0 -a 0 -x {0.0 1.0 0 C------ null}
+ -t 0.00010064 -s 1 -d 0 -p ack -e 40 -c 0 -i 1 -a 0 -x {1.0 0.0 0 C------ null}
- -t 0.00010064 -s 1 -d 0 -p ack -e 40 -c 0 -i 1 -a 0 -x {1.0 0.0 0 C------ null}
h -t 0.00010064 -s 1 -d 0 -p ack -e 40 -c 0 -i 1 -a 0 -x {1.0 0.0 -1 C------ null}
r -t 0.00020128 -s 1 -d 0 -p ack -e 40 -c 0 -i 1 -a 0 -x {1.0 0.0 0 C------ null}
+ -t 0.00020128 -s 0 -d 1 -p tcp -e 1040 -c 0 -i 2 -a 0 -x {0.0 1.0 1 ------N null}
- -t 0.00020128 -s 0 -d 1 -p tcp -e 1040 -c 0 -i 2 -a 0 -x {0.0 1.0 1 ------N null}
h -t 0.00020128 -s 0 -d 1 -p tcp -e 1040 -c 0 -i 2 -a 0 -x {0.0 1.0 -1 ------N null}
+ -t 0.00020128 -s 0 -d 1 -p tcp -e 1040 -c 0 -i 3 -a 0 -x {0.0 1.0 2 ------N null}
+ -t 0.00020128 -s 0 -d 1 -p tcp -e 1040 -c 0 -i 4 -a 0 -x {0.0 1.0 3 ------N null}
+ -t 0.00020128 -s 0 -d 1 -p tcp -e 1040 -c 0 -i 5 -a 0 -x {0.0 1.0 4 ------N null}
+ -t 0.00020128 -s 0 -d 1 -p tcp -e 1040 -c 0 -i 6 -a 0 -x {0.0 1.0 5 ------N null}
- -t 0.00021792 -s 0 -d 1 -p tcp -e 1040 -c 0 -i 3 -a 0 -x {0.0 1.0 2 ------N null}
h -t 0.00021792 -s 0 -d 1 -p tcp -e 1040 -c 0 -i 3 -a 0 -x {0.0 1.0 -1 ------N null}
- -t 0.00023456 -s 0 -d 1 -p tcp -e 1040 -c 0 -i 4 -a 0 -x {0.0 1.0 3 ------N null}
h -t 0.00023456 -s 0 -d 1 -p tcp -e 1040 -c 0 -i 4 -a 0 -x {0.0 1.0 -1 ------N null}
- -t 0.0002512 -s 0 -d 1 -p tcp -e 1040 -c 0 -i 5 -a 0 -x {0.0 1.0 4 ------N null}
h -t 0.0002512 -s 0 -d 1 -p tcp -e 1040 -c 0 -i 5 -a 0 -x {0.0 1.0 -1 ------N null}
- -t 0.00026784 -s 0 -d 1 -p tcp -e 1040 -c 0 -i 6 -a 0 -x {0.0 1.0 5 ------N null}
h -t 0.00026784 -s 0 -d 1 -p tcp -e 1040 -c 0 -i 6 -a 0 -x {0.0 1.0 -1 ------N null}
r -t 0.00031792 -s 0 -d 1 -p tcp -e 1040 -c 0 -i 2 -a 0 -x {0.0 1.0 1 ------N null}
+ -t 0.00031792 -s 1 -d 0 -p ack -e 40 -c 0 -i 7 -a 0 -x {1.0 0.0 1 ------- null}
- -t 0.00031792 -s 1 -d 0 -p ack -e 40 -c 0 -i 7 -a 0 -x {1.0 0.0 1 ------- null}
h -t 0.00031792 -s 1 -d 0 -p ack -e 40 -c 0 -i 7 -a 0 -x {1.0 0.0 -1 ------- null}
r -t 0.00033456 -s 0 -d 1 -p tcp -e 1040 -c 0 -i 3 -a 0 -x {0.0 1.0 2 ------N null}
+ -t 0.00033456 -s 1 -d 0 -p ack -e 40 -c 0 -i 8 -a 0 -x {1.0 0.0 2 ------- null}
- -t 0.00033456 -s 1 -d 0 -p ack -e 40 -c 0 -i 8 -a 0 -x {1.0 0.0 2 ------- null}
h -t 0.00033456 -s 1 -d 0 -p ack -e 40 -c 0 -i 8 -a 0 -x {1.0 0.0 -1 ------- null}
r -t 0.0003512 -s 0 -d 1 -p tcp -e 1040 -c 0 -i 4 -a 0 -x {0.0 1.0 3 ------N null}
+ -t 0.0003512 -s 1 -d 0 -p ack -e 40 -c 0 -i 9 -a 0 -x {1.0 0.0 3 ------- null}
- -t 0.0003512 -s 1 -d 0 -p ack -e 40 -c 0 -i 9 -a 0 -x {1.0 0.0 3 ------- null}
h -t 0.0003512 -s 1 -d 0 -p ack -e 40 -c 0 -i 9 -a 0 -x {1.0 0.0 -1 ------- null}
r -t 0.00036784 -s 0 -d 1 -p tcp -e 1040 -c 0 -i 5 -a 0 -x {0.0 1.0 4 ------N null}
+ -t 0.00036784 -s 1 -d 0 -p ack -e 40 -c 0 -i 10 -a 0 -x {1.0 0.0 4 ------- null}
- -t 0.00036784 -s 1 -d 0 -p ack -e 40 -c 0 -i 10 -a 0 -x {1.0 0.0 4 ------- null}
h -t 0.00036784 -s 1 -d 0 -p ack -e 40 -c 0 -i 10 -a 0 -x {1.0 0.0 -1 ------- null}
r -t 0.00038448 -s 0 -d 1 -p tcp -e 1040 -c 0 -i 6 -a 0 -x {0.0 1.0 5 ------N null}
+ -t 0.00038448 -s 1 -d 0 -p ack -e 40 -c 0 -i 11 -a 0 -x {1.0 0.0 5 ------- null}
- -t 0.00038448 -s 1 -d 0 -p ack -e 40 -c 0 -i 11 -a 0 -x {1.0 0.0 5 ------- null}
h -t 0.00038448 -s 1 -d 0 -p ack -e 40 -c 0 -i 11 -a 0 -x {1.0 0.0 -1 ------- null}
r -t 0.00041856 -s 1 -d 0 -p ack -e 40 -c 0 -i 7 -a 0 -x {1.0 0.0 1 ------- null}
+ -t 0.00041856 -s 0 -d 1 -p tcp -e 1040 -c 0 -i 12 -a 0 -x {0.0 1.0 6 ------N null}
- -t 0.00041856 -s 0 -d 1 -p tcp -e 1040 -c 0 -i 12 -a 0 -x {0.0 1.0 6 ------N null}
h -t 0.00041856 -s 0 -d 1 -p tcp -e 1040 -c 0 -i 12 -a 0 -x {0.0 1.0 -1 ------N null}
+ -t 0.00041856 -s 0 -d 1 -p tcp -e 1040 -c 0 -i 13 -a 0 -x {0.0 1.0 7 ------N null}
r -t 0.0004352 -s 1 -d 0 -p ack -e 40 -c 0 -i 8 -a 0 -x {1.0 0.0 2 ------- null}
+ -t 0.0004352 -s 0 -d 1 -p tcp -e 1040 -c 0 -i 14 -a 0 -x {0.0 1.0 8 ------N null}
+ -t 0.0004352 -s 0 -d 1 -p tcp -e 1040 -c 0 -i 15 -a 0 -x {0.0 1.0 9 ------N null}
- -t 0.0004352 -s 0 -d 1 -p tcp -e 1040 -c 0 -i 13 -a 0 -x {0.0 1.0 7 ------N null}
h -t 0.0004352 -s 0 -d 1 -p tcp -e 1040 -c 0 -i 13 -a 0 -x {0.0 1.0 -1 ------N null}
r -t 0.00045184 -s 1 -d 0 -p ack -e 40 -c 0 -i 9 -a 0 -x {1.0 0.0 3 ------- null}
+ -t 0.00045184 -s 0 -d 1 -p tcp -e 1040 -c 0 -i 16 -a 0 -x {0.0 1.0 10 ------N null}
+ -t 0.00045184 -s 0 -d 1 -p tcp -e 1040 -c 0 -i 17 -a 0 -x {0.0 1.0 11 ------N null}
- -t 0.00045184 -s 0 -d 1 -p tcp -e 1040 -c 0 -i 14 -a 0 -x {0.0 1.0 8 ------N null}
h -t 0.00045184 -s 0 -d 1 -p tcp -e 1040 -c 0 -i 14 -a 0 -x {0.0 1.0 -1 ------N null}
r -t 0.00046848 -s 1 -d 0 -p ack -e 40 -c 0 -i 10 -a 0 -x {1.0 0.0 4 ------- null}
+ -t 0.00046848 -s 0 -d 1 -p tcp -e 1040 -c 0 -i 18 -a 0 -x {0.0 1.0 12 ------N null}
+ -t 0.00046848 -s 0 -d 1 -p tcp -e 1040 -c 0 -i 19 -a 0 -x {0.0 1.0 13 ------N null}
- -t 0.00046848 -s 0 -d 1 -p tcp -e 1040 -c 0 -i 15 -a 0 -x {0.0 1.0 9 ------N null}
h -t 0.00046848 -s 0 -d 1 -p tcp -e 1040 -c 0 -i 15 -a 0 -x {0.0 1.0 -1 ------N null}
r -t 0.00048512 -s 1 -d 0 -p ack -e 40 -c 0 -i 11 -a 0 -x {1.0 0.0 5 ------- null}
+ -t 0.00048512 -s 0 -d 1 -p tcp -e 1040 -c 0 -i 20 -a 0 -x {0.0 1.0 14 ------N null}
+ -t 0.00048512 -s 0 -d 1 -p tcp -e 1040 -c 0 -i 21 -a 0 -x {0.0 1.0 15 ------N null}
- -t 0.00048512 -s 0 -d 1 -p tcp -e 1040 -c 0 -i 16 -a 0 -x {0.0 1.0 10 ------N null}
h -t 0.00048512 -s 0 -d 1 -p tcp -e 1040 -c 0 -i 16 -a 0 -x {0.0 1.0 -1 ------N null}
- -t 0.00050176 -s 0 -d 1 -p tcp -e 1040 -c 0 -i 17 -a 0 -x {0.0 1.0 11 ------N null}
h -t 0.00050176 -s 0 -d 1 -p tcp -e 1040 -c 0 -i 17 -a 0 -x {0.0 1.0 -1 ------N null}
- -t 0.0005184 -s 0 -d 1 -p tcp -e 1040 -c 0 -i 18 -a 0 -x {0.0 1.0 12 ------N null}
h -t 0.0005184 -s 0 -d 1 -p tcp -e 1040 -c 0 -i 18 -a 0 -x {0.0 1.0 -1 ------N null}
- -t 0.00053504 -s 0 -d 1 -p tcp -e 1040 -c 0 -i 19 -a 0 -x {0.0 1.0 13 ------N null}
h -t 0.00053504 -s 0 -d 1 -p tcp -e 1040 -c 0 -i 19 -a 0 -x {0.0 1.0 -1 ------N null}
r -t 0.0005352 -s 0 -d 1 -p tcp -e 1040 -c 0 -i 12 -a 0 -x {0.0 1.0 6 ------N null}
+ -t 0.0005352 -s 1 -d 0 -p ack -e 40 -c 0 -i 22 -a 0 -x {1.0 0.0 6 ------- null}
- -t 0.0005352 -s 1 -d 0 -p ack -e 40 -c 0 -i 22 -a 0 -x {1.0 0.0 6 ------- null}
h -t 0.0005352 -s 1 -d 0 -p ack -e 40 -c 0 -i 22 -a 0 -x {1.0 0.0 -1 ------- null}
- -t 0.00055168 -s 0 -d 1 -p tcp -e 1040 -c 0 -i 20 -a 0 -x {0.0 1.0 14 ------N null}
h -t 0.00055168 -s 0 -d 1 -p tcp -e 1040 -c 0 -i 20 -a 0 -x {0.0 1.0 -1 ------N null}
r -t 0.00055184 -s 0 -d 1 -p tcp -e 1040 -c 0 -i 13 -a 0 -x {0.0 1.0 7 ------N null}
+ -t 0.00055184 -s 1 -d 0 -p ack -e 40 -c 0 -i 23 -a 0 -x {1.0 0.0 7 ------- null}
- -t 0.00055184 -s 1 -d 0 -p ack -e 40 -c 0 -i 23 -a 0 -x {1.0 0.0 7 ------- null}
h -t 0.00055184 -s 1 -d 0 -p ack -e 40 -c 0 -i 23 -a 0 -x {1.0 0.0 -1 ------- null}
- -t 0.00056832 -s 0 -d 1 -p tcp -e 1040 -c 0 -i 21 -a 0 -x {0.0 1.0 15 ------N null}
h -t 0.00056832 -s 0 -d 1 -p tcp -e 1040 -c 0 -i 21 -a 0 -x {0.0 1.0 -1 ------N null}
r -t 0.00056848 -s 0 -d 1 -p tcp -e 1040 -c 0 -i 14 -a 0 -x {0.0 1.0 8 ------N null}
+ -t 0.00056848 -s 1 -d 0 -p ack -e 40 -c 0 -i 24 -a 0 -x {1.0 0.0 8 ------- null}
- -t 0.00056848 -s 1 -d 0 -p ack -e 40 -c 0 -i 24 -a 0 -x {1.0 0.0 8 ------- null}
h -t 0.00056848 -s 1 -d 0 -p ack -e 40 -c 0 -i 24 -a 0 -x {1.0 0.0 -1 ------- null}
r -t 0.00058512 -s 0 -d 1 -p tcp -e 1040 -c 0 -i 15 -a 0 -x {0.0 1.0 9 ------N null}
+ -t 0.00058512 -s 1 -d 0 -p ack -e 40 -c 0 -i 25 -a 0 -x {1.0 0.0 9 ------- null}
- -t 0.00058512 -s 1 -d 0 -p ack -e 40 -c 0 -i 25 -a 0 -x {1.0 0.0 9 ------- null}
h -t 0.00058512 -s 1 -d 0 -p ack -e 40 -c 0 -i 25 -a 0 -x {1.0 0.0 -1 ------- null}
r -t 0.00060176 -s 0 -d 1 -p tcp -e 1040 -c 0 -i 16 -a 0 -x {0.0 1.0 10 ------N null}
+ -t 0.00060176 -s 1 -d 0 -p ack -e 40 -c 0 -i 26 -a 0 -x {1.0 0.0 10 ------- null}
- -t 0.00060176 -s 1 -d 0 -p ack -e 40 -c 0 -i 26 -a 0 -x {1.0 0.0 10 ------- null}
h -t 0.00060176 -s 1 -d 0 -p ack -e 40 -c 0 -i 26 -a 0 -x {1.0 0.0 -1 ------- null}
r -t 0.0006184 -s 0 -d 1 -p tcp -e 1040 -c 0 -i 17 -a 0 -x {0.0 1.0 11 ------N null}
+ -t 0.0006184 -s 1 -d 0 -p ack -e 40 -c 0 -i 27 -a 0 -x {1.0 0.0 11 ------- null}
- -t 0.0006184 -s 1 -d 0 -p ack -e 40 -c 0 -i 27 -a 0 -x {1.0 0.0 11 ------- null}
h -t 0.0006184 -s 1 -d 0 -p ack -e 40 -c 0 -i 27 -a 0 -x {1.0 0.0 -1 ------- null}
r -t 0.00063504 -s 0 -d 1 -p tcp -e 1040 -c 0 -i 18 -a 0 -x {0.0 1.0 12 ------N null}
+ -t 0.00063504 -s 1 -d 0 -p ack -e 40 -c 0 -i 28 -a 0 -x {1.0 0.0 12 ------- null}
- -t 0.00063504 -s 1 -d 0 -p ack -e 40 -c 0 -i 28 -a 0 -x {1.0 0.0 12 ------- null}
h -t 0.00063504 -s 1 -d 0 -p ack -e 40 -c 0 -i 28 -a 0 -x {1.0 0.0 -1 ------- null}
r -t 0.00063584 -s 1 -d 0 -p ack -e 40 -c 0 -i 22 -a 0 -x {1.0 0.0 6 ------- null}
+ -t 0.00063584 -s 0 -d 1 -p tcp -e 1040 -c 0 -i 29 -a 0 -x {0.0 1.0 16 ------N null}
- -t 0.00063584 -s 0 -d 1 -p tcp -e 1040 -c 0 -i 29 -a 0 -x {0.0 1.0 16 ------N null}
h -t 0.00063584 -s 0 -d 1 -p tcp -e 1040 -c 0 -i 29 -a 0 -x {0.0 1.0 -1 ------N null}
+ -t 0.00063584 -s 0 -d 1 -p tcp -e 1040 -c 0 -i 30 -a 0 -x {0.0 1.0 17 ------N null}
r -t 0.00065168 -s 0 -d 1 -p tcp -e 1040 -c 0 -i 19 -a 0 -x {0.0 1.0 13 ------N null}
+ -t 0.00065168 -s 1 -d 0 -p ack -e 40 -c 0 -i 31 -a 0 -x {1.0 0.0 13 ------- null}
- -t 0.00065168 -s 1 -d 0 -p ack -e 40 -c 0 -i 31 -a 0 -x {1.0 0.0 13 ------- null}
h -t 0.00065168 -s 1 -d 0 -p ack -e 40 -c 0 -i 31 -a 0 -x {1.0 0.0 -1 ------- null}
- -t 0.00065248 -s 0 -d 1 -p tcp -e 1040 -c 0 -i 30 -a 0 -x {0.0 1.0 17 ------N null}
h -t 0.00065248 -s 0 -d 1 -p tcp -e 1040 -c 0 -i 30 -a 0 -x {0.0 1.0 -1 ------N null}
r -t 0.00065248 -s 1 -d 0 -p ack -e 40 -c 0 -i 23 -a 0 -x {1.0 0.0 7 ------- null}
+ -t 0.00065248 -s 0 -d 1 -p tcp -e 1040 -c 0 -i 32 -a 0 -x {0.0 1.0 18 ------N null}
+ -t 0.00065248 -s 0 -d 1 -p tcp -e 1040 -c 0 -i 33 -a 0 -x {0.0 1.0 19 ------N null}
r -t 0.00066832 -s 0 -d 1 -p tcp -e 1040 -c 0 -i 20 -a 0 -x {0.0 1.0 14 ------N null}
+ -t 0.00066832 -s 1 -d 0 -p ack -e 40 -c 0 -i 34 -a 0 -x {1.0 0.0 14 ------- null}
- -t 0.00066832 -s 1 -d 0 -p ack -e 40 -c 0 -i 34 -a 0 -x {1.0 0.0 14 ------- null}
h -t 0.00066832 -s 1 -d 0 -p ack -e 40 -c 0 -i 34 -a 0 -x {1.0 0.0 -1 ------- null}
- -t 0.00066912 -s 0 -d 1 -p tcp -e 1040 -c 0 -i 32 -a 0 -x {0.0 1.0 18 ------N null}
h -t 0.00066912 -s 0 -d 1 -p tcp -e 1040 -c 0 -i 32 -a 0 -x {0.0 1.0 -1 ------N null}
r -t 0.00066912 -s 1 -d 0 -p ack -e 40 -c 0 -i 24 -a 0 -x {1.0 0.0 8 ------- null}
+ -t 0.00066912 -s 0 -d 1 -p tcp -e 1040 -c 0 -i 35 -a 0 -x {0.0 1.0 20 ------N null}
+ -t 0.00066912 -s 0 -d 1 -p tcp -e 1040 -c 0 -i 36 -a 0 -x {0.0 1.0 21 ------N null}
r -t 0.00068496 -s 0 -d 1 -p tcp -e 1040 -c 0 -i 21 -a 0 -x {0.0 1.0 15 ------N null}
+ -t 0.00068496 -s 1 -d 0 -p ack -e 40 -c 0 -i 37 -a 0 -x {1.0 0.0 15 ------- null}
- -t 0.00068496 -s 1 -d 0 -p ack -e 40 -c 0 -i 37 -a 0 -x {1.0 0.0 15 ------- null}
h -t 0.00068496 -s 1 -d 0 -p ack -e 40 -c 0 -i 37 -a 0 -x {1.0 0.0 -1 ------- null}
- -t 0.00068576 -s 0 -d 1 -p tcp -e 1040 -c 0 -i 33 -a 0 -x {0.0 1.0 19 ------N null}
h -t 0.00068576 -s 0 -d 1 -p tcp -e 1040 -c 0 -i 33 -a 0 -x {0.0 1.0 -1 ------N null}
r -t 0.00068576 -s 1 -d 0 -p ack -e 40 -c 0 -i 25 -a 0 -x {1.0 0.0 9 ------- null}
+ -t 0.00068576 -s 0 -d 1 -p tcp -e 1040 -c 0 -i 38 -a 0 -x {0.0 1.0 22 ------N null}
+ -t 0.00068576 -s 0 -d 1 -p tcp -e 1040 -c 0 -i 39 -a 0 -x {0.0 1.0 23 ------N null}
- -t 0.0007024 -s 0 -d 1 -p tcp -e 1040 -c 0 -i 35 -a 0 -x {0.0 1.0 20 ------N null}
h -t 0.0007024 -s 0 -d 1 -p tcp -e 1040 -c 0 -i 35 -a 0 -x {0.0 1.0 -1 ------N null}
r -t 0.0007024 -s 1 -d 0 -p ack -e 40 -c 0 -i 26 -a 0 -x {1.0 0.0 10 ------- null}
+ -t 0.0007024 -s 0 -d 1 -p tcp -e 1040 -c 0 -i 40 -a 0 -x {0.0 1.0 24 ------N null}
+ -t 0.0007024 -s 0 -d 1 -p tcp -e 1040 -c 0 -i 41 -a 0 -x {0.0 1.0 25 ------N null}
- -t 0.00071904 -s 0 -d 1 -p tcp -e 1040 -c 0 -i 36 -a 0 -x {0.0 1.0 21 ------N null}
h -t 0.00071904 -s 0 -d 1 -p tcp -e 1040 -c 0 -i 36 -a 0 -x {0.0 1.0 -1 ------N null}
r -t 0.00071904 -s 1 -d 0 -p ack -e 40 -c 0 -i 27 -a 0 -x {1.0 0.0 11 ------- null}
+ -t 0.00071904 -s 0 -d 1 -p tcp -e 1040 -c 0 -i 42 -a 0 -x {0.0 1.0 26 ------N null}
+ -t 0.00071904 -s 0 -d 1 -p tcp -e 1040 -c 0 -i 43 -a 0 -x {0.0 1.0 27 ------N null}
- -t 0.00073568 -s 0 -d 1 -p tcp -e 1040 -c 0 -i 38 -a 0 -x {0.0 1.0 22 ------N null}
h -t 0.00073568 -s 0 -d 1 -p tcp -e 1040 -c 0 -i 38 -a 0 -x {0.0 1.0 -1 ------N null}
r -t 0.00073568 -s 1 -d 0 -p ack -e 40 -c 0 -i 28 -a 0 -x {1.0 0.0 12 ------- null}
+ -t 0.00073568 -s 0 -d 1 -p tcp -e 1040 -c 0 -i 44 -a 0 -x {0.0 1.0 28 ------N null}
+ -t 0.00073568 -s 0 -d 1 -p tcp -e 1040 -c 0 -i 45 -a 0 -x {0.0 1.0 29 ------N null}
- -t 0.00075232 -s 0 -d 1 -p tcp -e 1040 -c 0 -i 39 -a 0 -x {0.0 1.0 23 ------N null}
h -t 0.00075232 -s 0 -d 1 -p tcp -e 1040 -c 0 -i 39 -a 0 -x {0.0 1.0 -1 ------N null}
r -t 0.00075232 -s 1 -d 0 -p ack -e 40 -c 0 -i 31 -a 0 -x {1.0 0.0 13 ------- null}
+ -t 0.00075232 -s 0 -d 1 -p tcp -e 1040 -c 0 -i 46 -a 0 -x {0.0 1.0 30 ------N null}
+ -t 0.00075232 -s 0 -d 1 -p tcp -e 1040 -c 0 -i 47 -a 0 -x {0.0 1.0 31 ------N null}
r -t 0.00075248 -s 0 -d 1 -p tcp -e 1040 -c 0 -i 29 -a 0 -x {0.0 1.0 16 ------N null}
+ -t 0.00075248 -s 1 -d 0 -p ack -e 40 -c 0 -i 48 -a 0 -x {1.0 0.0 16 ------- null}
- -t 0.00075248 -s 1 -d 0 -p ack -e 40 -c 0 -i 48 -a 0 -x {1.0 0.0 16 ------- null}
h -t 0.00075248 -s 1 -d 0 -p ack -e 40 -c 0 -i 48 -a 0 -x {1.0 0.0 -1 ------- null}
- -t 0.00076896 -s 0 -d 1 -p tcp -e 1040 -c 0 -i 40 -a 0 -x {0.0 1.0 24 ------N null}
h -t 0.00076896 -s 0 -d 1 -p tcp -e 1040 -c 0 -i 40 -a 0 -x {0.0 1.0 -1 ------N null}
r -t 0.00076896 -s 1 -d 0 -p ack -e 40 -c 0 -i 34 -a 0 -x {1.0 0.0 14 ------- null}
+ -t 0.00076896 -s 0 -d 1 -p tcp -e 1040 -c 0 -i 49 -a 0 -x {0.0 1.0 32 ------N null}
+ -t 0.00076896 -s 0 -d 1 -p tcp -e 1040 -c 0 -i 50 -a 0 -x {0.0 1.0 33 ------N null}
r -t 0.00076912 -s 0 -d 1 -p tcp -e 1040 -c 0 -i 30 -a 0 -x {0.0 1.0 17 ------N null}
+ -t 0.00076912 -s 1 -d 0 -p ack -e 40 -c 0 -i 51 -a 0 -x {1.0 0.0 17 ------- null}
- -t 0.00076912 -s 1 -d 0 -p ack -e 40 -c 0 -i 51 -a 0 -x {1.0 0.0 17 ------- null}
h -t 0.00076912 -s 1 -d 0 -p ack -e 40 -c 0 -i 51 -a 0 -x {1.0 0.0 -1 ------- null}
- -t 0.0007856 -s 0 -d 1 -p tcp -e 1040 -c 0 -i 41 -a 0 -x {0.0 1.0 25 ------N null}
h -t 0.0007856 -s 0 -d 1 -p tcp -e 1040 -c 0 -i 41 -a 0 -x {0.0 1.0 -1 ------N null}
r -t 0.0007856 -s 1 -d 0 -p ack -e 40 -c 0 -i 37 -a 0 -x {1.0 0.0 15 ------- null}
+ -t 0.0007856 -s 0 -d 1 -p tcp -e 1040 -c 0 -i 52 -a 0 -x {0.0 1.0 34 ------N null}
+ -t 0.0007856 -s 0 -d 1 -p tcp -e 1040 -c 0 -i 53 -a 0 -x {0.0 1.0 35 ------N null}
r -t 0.00078576 -s 0 -d 1 -p tcp -e 1040 -c 0 -i 32 -a 0 -x {0.0 1.0 18 ------N null}
+ -t 0.00078576 -s 1 -d 0 -p ack -e 40 -c 0 -i 54 -a 0 -x {1.0 0.0 18 ------- null}
- -t 0.00078576 -s 1 -d 0 -p ack -e 40 -c 0 -i 54 -a 0 -x {1.0 0.0 18 ------- null}
h -t 0.00078576 -s 1 -d 0 -p ack -e 40 -c 0 -i 54 -a 0 -x {1.0 0.0 -1 ------- null}
- -t 0.00080224 -s 0 -d 1 -p tcp -e 1040 -c 0 -i 42 -a 0 -x {0.0 1.0 26 ------N null}
h -t 0.00080224 -s 0 -d 1 -p tcp -e 1040 -c 0 -i 42 -a 0 -x {0.0 1.0 -1 ------N null}
r -t 0.0008024 -s 0 -d 1 -p tcp -e 1040 -c 0 -i 33 -a 0 -x {0.0 1.0 19 ------N null}
+ -t 0.0008024 -s 1 -d 0 -p ack -e 40 -c 0 -i 55 -a 0 -x {1.0 0.0 19 ------- null}
- -t 0.0008024 -s 1 -d 0 -p ack -e 40 -c 0 -i 55 -a 0 -x {1.0 0.0 19 ------- null}
h -t 0.0008024 -s 1 -d 0 -p ack -e 40 -c 0 -i 55 -a 0 -x {1.0 0.0 -1 ------- null}
- -t 0.000818879999999999 -s 0 -d 1 -p tcp -e 1040 -c 0 -i 43 -a 0 -x {0.0 1.0 27 ------N null}
h -t 0.000818879999999999 -s 0 -d 1 -p tcp -e 1040 -c 0 -i 43 -a 0 -x {0.0 1.0 -1 ------N null}
r -t 0.00081904 -s 0 -d 1 -p tcp -e 1040 -c 0 -i 35 -a 0 -x {0.0 1.0 20 ------N null}
+ -t 0.00081904 -s 1 -d 0 -p ack -e 40 -c 0 -i 56 -a 0 -x {1.0 0.0 20 ------- null}
- -t 0.00081904 -s 1 -d 0 -p ack -e 40 -c 0 -i 56 -a 0 -x {1.0 0.0 20 ------- null}
h -t 0.00081904 -s 1 -d 0 -p ack -e 40 -c 0 -i 56 -a 0 -x {1.0 0.0 -1 ------- null}
- -t 0.000835519999999999 -s 0 -d 1 -p tcp -e 1040 -c 0 -i 44 -a 0 -x {0.0 1.0 28 ------N null}
h -t 0.000835519999999999 -s 0 -d 1 -p tcp -e 1040 -c 0 -i 44 -a 0 -x {0.0 1.0 -1 ------N null}
r -t 0.00083568 -s 0 -d 1 -p tcp -e 1040 -c 0 -i 36 -a 0 -x {0.0 1.0 21 ------N null}
+ -t 0.00083568 -s 1 -d 0 -p ack -e 40 -c 0 -i 57 -a 0 -x {1.0 0.0 21 ------- null}
- -t 0.00083568 -s 1 -d 0 -p ack -e 40 -c 0 -i 57 -a 0 -x {1.0 0.0 21 ------- null}
h -t 0.00083568 -s 1 -d 0 -p ack -e 40 -c 0 -i 57 -a 0 -x {1.0 0.0 -1 ------- null}
- -t 0.000852159999999999 -s 0 -d 1 -p tcp -e 1040 -c 0 -i 45 -a 0 -x {0.0 1.0 29 ------N null}
h -t 0.000852159999999999 -s 0 -d 1 -p tcp -e 1040 -c 0 -i 45 -a 0 -x {0.0 1.0 -1 ------N null}
r -t 0.00085232 -s 0 -d 1 -p tcp -e 1040 -c 0 -i 38 -a 0 -x {0.0 1.0 22 ------N null}
+ -t 0.00085232 -s 1 -d 0 -p ack -e 40 -c 0 -i 58 -a 0 -x {1.0 0.0 22 ------- null}
- -t 0.00085232 -s 1 -d 0 -p ack -e 40 -c 0 -i 58 -a 0 -x {1.0 0.0 22 ------- null}
h -t 0.00085232 -s 1 -d 0 -p ack -e 40 -c 0 -i 58 -a 0 -x {1.0 0.0 -1 ------- null}
r -t 0.00085312 -s 1 -d 0 -p ack -e 40 -c 0 -i 48 -a 0 -x {1.0 0.0 16 ------- null}
+ -t 0.00085312 -s 0 -d 1 -p tcp -e 1040 -c 0 -i 59 -a 0 -x {0.0 1.0 36 ------N null}
- -t 0.000868799999999999 -s 0 -d 1 -p tcp -e 1040 -c 0 -i 46 -a 0 -x {0.0 1.0 30 ------N null}
h -t 0.000868799999999999 -s 0 -d 1 -p tcp -e 1040 -c 0 -i 46 -a 0 -x {0.0 1.0 -1 ------N null}
r -t 0.00086896 -s 0 -d 1 -p tcp -e 1040 -c 0 -i 39 -a 0 -x {0.0 1.0 23 ------N null}
+ -t 0.00086896 -s 1 -d 0 -p ack -e 40 -c 0 -i 60 -a 0 -x {1.0 0.0 23 ------- null}
- -t 0.00086896 -s 1 -d 0 -p ack -e 40 -c 0 -i 60 -a 0 -x {1.0 0.0 23 ------- null}
h -t 0.00086896 -s 1 -d 0 -p ack -e 40 -c 0 -i 60 -a 0 -x {1.0 0.0 -1 ------- null}
r -t 0.00086976 -s 1 -d 0 -p ack -e 40 -c 0 -i 51 -a 0 -x {1.0 0.0 17 ------- null}
+ -t 0.00086976 -s 0 -d 1 -p tcp -e 1040 -c 0 -i 61 -a 0 -x {0.0 1.0 37 ------N null}
- -t 0.000885439999999999 -s 0 -d 1 -p tcp -e 1040 -c 0 -i 47 -a 0 -x {0.0 1.0 31 ------N null}
h -t 0.000885439999999999 -s 0 -d 1 -p tcp -e 1040 -c 0 -i 47 -a 0 -x {0.0 1.0 -1 ------N null}
r -t 0.0008856 -s 0 -d 1 -p tcp -e 1040 -c 0 -i 40 -a 0 -x {0.0 1.0 24 ------N null}
+ -t 0.0008856 -s 1 -d 0 -p ack -e 40 -c 0 -i 62 -a 0 -x {1.0 0.0 24 ------- null}
- -t 0.0008856 -s 1 -d 0 -p ack -e 40 -c 0 -i 62 -a 0 -x {1.0 0.0 24 ------- null}
h -t 0.0008856 -s 1 -d 0 -p ack -e 40 -c 0 -i 62 -a 0 -x {1.0 0.0 -1 ------- null}
r -t 0.0008864 -s 1 -d 0 -p ack -e 40 -c 0 -i 54 -a 0 -x {1.0 0.0 18 ------- null}
+ -t 0.0008864 -s 0 -d 1 -p tcp -e 1040 -c 0 -i 63 -a 0 -x {0.0 1.0 38 ------N null}
- -t 0.000902079999999999 -s 0 -d 1 -p tcp -e 1040 -c 0 -i 49 -a 0 -x {0.0 1.0 32 ------N null}
h -t 0.000902079999999999 -s 0 -d 1 -p tcp -e 1040 -c 0 -i 49 -a 0 -x {0.0 1.0 -1 ------N null}
r -t 0.00090224 -s 0 -d 1 -p tcp -e 1040 -c 0 -i 41 -a 0 -x {0.0 1.0 25 ------N null}
+ -t 0.00090224 -s 1 -d 0 -p ack -e 40 -c 0 -i 64 -a 0 -x {1.0 0.0 25 ------- null}
- -t 0.00090224 -s 1 -d 0 -p ack -e 40 -c 0 -i 64 -a 0 -x {1.0 0.0 25 ------- null}
h -t 0.00090224 -s 1 -d 0 -p ack -e 40 -c 0 -i 64 -a 0 -x {1.0 0.0 -1 ------- null}
r -t 0.00090304 -s 1 -d 0 -p ack -e 40 -c 0 -i 55 -a 0 -x {1.0 0.0 19 ------- null}
+ -t 0.00090304 -s 0 -d 1 -p tcp -e 1040 -c 0 -i 65 -a 0 -x {0.0 1.0 39 ------N null}
- -t 0.000918719999999999 -s 0 -d 1 -p tcp -e 1040 -c 0 -i 50 -a 0 -x {0.0 1.0 33 ------N null}
h -t 0.000918719999999999 -s 0 -d 1 -p tcp -e 1040 -c 0 -i 50 -a 0 -x {0.0 1.0 -1 ------N null}
r -t 0.00091888 -s 0 -d 1 -p tcp -e 1040 -c 0 -i 42 -a 0 -x {0.0 1.0 26 ------N null}
+ -t 0.00091888 -s 1 -d 0 -p ack -e 40 -c 0 -i 66 -a 0 -x {1.0 0.0 26 ------- null}
- -t 0.00091888 -s 1 -d 0 -p ack -e 40 -c 0 -i 66 -a 0 -x {1.0 0.0 26 ------- null}
h -t 0.00091888 -s 1 -d 0 -p ack -e 40 -c 0 -i 66 -a 0 -x {1.0 0.0 -1 ------- null}
r -t 0.00091968 -s 1 -d 0 -p ack -e 40 -c 0 -i 56 -a 0 -x {1.0 0.0 20 ------- null}
+ -t 0.00091968 -s 0 -d 1 -p tcp -e 1040 -c 0 -i 67 -a 0 -x {0.0 1.0 40 ------N null}
- -t 0.000935359999999999 -s 0 -d 1 -p tcp -e 1040 -c 0 -i 52 -a 0 -x {0.0 1.0 34 ------N null}
h -t 0.000935359999999999 -s 0 -d 1 -p tcp -e 1040 -c 0 -i 52 -a 0 -x {0.0 1.0 -1 ------N null}
r -t 0.000935519999999999 -s 0 -d 1 -p tcp -e 1040 -c 0 -i 43 -a 0 -x {0.0 1.0 27 ------N null}
+ -t 0.000935519999999999 -s 1 -d 0 -p ack -e 40 -c 0 -i 68 -a 0 -x {1.0 0.0 27 ------- null}
- -t 0.000935519999999999 -s 1 -d 0 -p ack -e 40 -c 0 -i 68 -a 0 -x {1.0 0.0 27 ------- null}
h -t 0.000935519999999999 -s 1 -d 0 -p ack -e 40 -c 0 -i 68 -a 0 -x {1.0 0.0 -1 ------- null}
r -t 0.00093632 -s 1 -d 0 -p ack -e 40 -c 0 -i 57 -a 0 -x {1.0 0.0 21 ------- null}
+ -t 0.00093632 -s 0 -d 1 -p tcp -e 1040 -c 0 -i 69 -a 0 -x {0.0 1.0 41 ------N null}
- -t 0.000951999999999999 -s 0 -d 1 -p tcp -e 1040 -c 0 -i 53 -a 0 -x {0.0 1.0 35 ------N null}
h -t 0.000951999999999999 -s 0 -d 1 -p tcp -e 1040 -c 0 -i 53 -a 0 -x {0.0 1.0 -1 ------N null}
r -t 0.000952159999999999 -s 0 -d 1 -p tcp -e 1040 -c 0 -i 44 -a 0 -x {0.0 1.0 28 ------N null}
+ -t 0.000952159999999999 -s 1 -d 0 -p ack -e 40 -c 0 -i 70 -a 0 -x {1.0 0.0 28 ------- null}
- -t 0.000952159999999999 -s 1 -d 0 -p ack -e 40 -c 0 -i 70 -a 0 -x {1.0 0.0 28 ------- null}
h -t 0.000952159999999999 -s 1 -d 0 -p ack -e 40 -c 0 -i 70 -a 0 -x {1.0 0.0 -1 ------- null}
r -t 0.00095296 -s 1 -d 0 -p ack -e 40 -c 0 -i 58 -a 0 -x {1.0 0.0 22 ------- null}
+ -t 0.00095296 -s 0 -d 1 -p tcp -e 1040 -c 0 -i 71 -a 0 -x {0.0 1.0 42 ------N null}
- -t 0.000968639999999999 -s 0 -d 1 -p tcp -e 1040 -c 0 -i 59 -a 0 -x {0.0 1.0 36 ------N null}
h -t 0.000968639999999999 -s 0 -d 1 -p tcp -e 1040 -c 0 -i 59 -a 0 -x {0.0 1.0 -1 ------N null}
r -t 0.000968799999999999 -s 0 -d 1 -p tcp -e 1040 -c 0 -i 45 -a 0 -x {0.0 1.0 29 ------N null}
+ -t 0.000968799999999999 -s 1 -d 0 -p ack -e 40 -c 0 -i 72 -a 0 -x {1.0 0.0 29 ------- null}
- -t 0.000968799999999999 -s 1 -d 0 -p ack -e 40 -c 0 -i 72 -a 0 -x {1.0 0.0 29 ------- null}
h -t 0.000968799999999999 -s 1 -d 0 -p ack -e 40 -c 0 -i 72 -a 0 -x {1.0 0.0 -1 ------- null}
r -t 0.0009696 -s 1 -d 0 -p ack -e 40 -c 0 -i 60 -a 0 -x {1.0 0.0 23 ------- null}
+ -t 0.0009696 -s 0 -d 1 -p tcp -e 1040 -c 0 -i 73 -a 0 -x {0.0 1.0 43 ------N null}
- -t 0.000985279999999999 -s 0 -d 1 -p tcp -e 1040 -c 0 -i 61 -a 0 -x {0.0 1.0 37 ------N null}
h -t 0.000985279999999999 -s 0 -d 1 -p tcp -e 1040 -c 0 -i 61 -a 0 -x {0.0 1.0 -1 ------N null}
r -t 0.000985439999999999 -s 0 -d 1 -p tcp -e 1040 -c 0 -i 46 -a 0 -x {0.0 1.0 30 ------N null}
+ -t 0.000985439999999999 -s 1 -d 0 -p ack -e 40 -c 0 -i 74 -a 0 -x {1.0 0.0 30 ------- null}
- -t 0.000985439999999999 -s 1 -d 0 -p ack -e 40 -c 0 -i 74 -a 0 -x {1.0 0.0 30 ------- null}
h -t 0.000985439999999999 -s 1 -d 0 -p ack -e 40 -c 0 -i 74 -a 0 -x {1.0 0.0 -1 ------- null}
r -t 0.00098624 -s 1 -d 0 -p ack -e 40 -c 0 -i 62 -a 0 -x {1.0 0.0 24 ------- null}
+ -t 0.00098624 -s 0 -d 1 -p tcp -e 1040 -c 0 -i 75 -a 0 -x {0.0 1.0 44 ------N null}
- -t 0.00100192 -s 0 -d 1 -p tcp -e 1040 -c 0 -i 63 -a 0 -x {0.0 1.0 38 ------N null}
h -t 0.00100192 -s 0 -d 1 -p tcp -e 1040 -c 0 -i 63 -a 0 -x {0.0 1.0 -1 ------N null}
r -t 0.00100208 -s 0 -d 1 -p tcp -e 1040 -c 0 -i 47 -a 0 -x {0.0 1.0 31 ------N null}
+ -t 0.00100208 -s 1 -d 0 -p ack -e 40 -c 0 -i 76 -a 0 -x {1.0 0.0 31 ------- null}
- -t 0.00100208 -s 1 -d 0 -p ack -e 40 -c 0 -i 76 -a 0 -x {1.0 0.0 31 ------- null}
h -t 0.00100208 -s 1 -d 0 -p ack -e 40 -c 0 -i 76 -a 0 -x {1.0 0.0 -1 ------- null}
r -t 0.00100288 -s 1 -d 0 -p ack -e 40 -c 0 -i 64 -a 0 -x {1.0 0.0 25 ------- null}
+ -t 0.00100288 -s 0 -d 1 -p tcp -e 1040 -c 0 -i 77 -a 0 -x {0.0 1.0 45 ------N null}
- -t 0.00101856 -s 0 -d 1 -p tcp -e 1040 -c 0 -i 65 -a 0 -x {0.0 1.0 39 ------N null}
h -t 0.00101856 -s 0 -d 1 -p tcp -e 1040 -c 0 -i 65 -a 0 -x {0.0 1.0 -1 ------N null}
r -t 0.00101872 -s 0 -d 1 -p tcp -e 1040 -c 0 -i 49 -a 0 -x {0.0 1.0 32 ------N null}
+ -t 0.00101872 -s 1 -d 0 -p ack -e 40 -c 0 -i 78 -a 0 -x {1.0 0.0 32 ------- null}
- -t 0.00101872 -s 1 -d 0 -p ack -e 40 -c 0 -i 78 -a 0 -x {1.0 0.0 32 ------- null}
h -t 0.00101872 -s 1 -d 0 -p ack -e 40 -c 0 -i 78 -a 0 -x {1.0 0.0 -1 ------- null}
r -t 0.00101952 -s 1 -d 0 -p ack -e 40 -c 0 -i 66 -a 0 -x {1.0 0.0 26 ------- null}
+ -t 0.00101952 -s 0 -d 1 -p tcp -e 1040 -c 0 -i 79 -a 0 -x {0.0 1.0 46 ------N null}
- -t 0.0010352 -s 0 -d 1 -p tcp -e 1040 -c 0 -i 67 -a 0 -x {0.0 1.0 40 ------N null}
h -t 0.0010352 -s 0 -d 1 -p tcp -e 1040 -c 0 -i 67 -a 0 -x {0.0 1.0 -1 ------N null}
r -t 0.00103536 -s 0 -d 1 -p tcp -e 1040 -c 0 -i 50 -a 0 -x {0.0 1.0 33 ------N null}
+ -t 0.00103536 -s 1 -d 0 -p ack -e 40 -c 0 -i 80 -a 0 -x {1.0 0.0 33 ------- null}
- -t 0.00103536 -s 1 -d 0 -p ack -e 40 -c 0 -i 80 -a 0 -x {1.0 0.0 33 ------- null}
h -t 0.00103536 -s 1 -d 0 -p ack -e 40 -c 0 -i 80 -a 0 -x {1.0 0.0 -1 ------- null}
r -t 0.00103616 -s 1 -d 0 -p ack -e 40 -c 0 -i 68 -a 0 -x {1.0 0.0 27 ------- null}
+ -t 0.00103616 -s 0 -d 1 -p tcp -e 1040 -c 0 -i 81 -a 0 -x {0.0 1.0 47 ------N null}
- -t 0.00105184 -s 0 -d 1 -p tcp -e 1040 -c 0 -i 69 -a 0 -x {0.0 1.0 41 ------N null}
h -t 0.00105184 -s 0 -d 1 -p tcp -e 1040 -c 0 -i 69 -a 0 -x {0.0 1.0 -1 ------N null}
r -t 0.001052 -s 0 -d 1 -p tcp -e 1040 -c 0 -i 52 -a 0 -x {0.0 1.0 34 ------N null}
+ -t 0.001052 -s 1 -d 0 -p ack -e 40 -c 0 -i 82 -a 0 -x {1.0 0.0 34 ------- null}
- -t 0.001052 -s 1 -d 0 -p ack -e 40 -c 0 -i 82 -a 0 -x {1.0 0.0 34 ------- null}
h -t 0.001052 -s 1 -d 0 -p ack -e 40 -c 0 -i 82 -a 0 -x {1.0 0.0 -1 ------- null}
r -t 0.0010528 -s 1 -d 0 -p ack -e 40 -c 0 -i 70 -a 0 -x {1.0 0.0 28 ------- null}
+ -t 0.0010528 -s 0 -d 1 -p tcp -e 1040 -c 0 -i 83 -a 0 -x {0.0 1.0 48 ------N null}
- -t 0.00106848 -s 0 -d 1 -p tcp -e 1040 -c 0 -i 71 -a 0 -x {0.0 1.0 42 ------N null}
h -t 0.00106848 -s 0 -d 1 -p tcp -e 1040 -c 0 -i 71 -a 0 -x {0.0 1.0 -1 ------N null}
r -t 0.00106864 -s 0 -d 1 -p tcp -e 1040 -c 0 -i 53 -a 0 -x {0.0 1.0 35 ------N null}
+ -t 0.00106864 -s 1 -d 0 -p ack -e 40 -c 0 -i 84 -a 0 -x {1.0 0.0 35 ------- null}
- -t 0.00106864 -s 1 -d 0 -p ack -e 40 -c 0 -i 84 -a 0 -x {1.0 0.0 35 ------- null}
h -t 0.00106864 -s 1 -d 0 -p ack -e 40 -c 0 -i 84 -a 0 -x {1.0 0.0 -1 ------- null}
r -t 0.00106944 -s 1 -d 0 -p ack -e 40 -c 0 -i 72 -a 0 -x {1.0 0.0 29 ------- null}
+ -t 0.00106944 -s 0 -d 1 -p tcp -e 1040 -c 0 -i 85 -a 0 -x {0.0 1.0 49 ------N null}
- -t 0.00108512 -s 0 -d 1 -p tcp -e 1040 -c 0 -i 73 -a 0 -x {0.0 1.0 43 ------N null}
h -t 0.00108512 -s 0 -d 1 -p tcp -e 1040 -c 0 -i 73 -a 0 -x {0.0 1.0 -1 ------N null}
r -t 0.00108528 -s 0 -d 1 -p tcp -e 1040 -c 0 -i 59 -a 0 -x {0.0 1.0 36 ------N null}
+ -t 0.00108528 -s 1 -d 0 -p ack -e 40 -c 0 -i 86 -a 0 -x {1.0 0.0 36 ------- null}
- -t 0.00108528 -s 1 -d 0 -p ack -e 40 -c 0 -i 86 -a 0 -x {1.0 0.0 36 ------- null}
h -t 0.00108528 -s 1 -d 0 -p ack -e 40 -c 0 -i 86 -a 0 -x {1.0 0.0 -1 ------- null}
r -t 0.00108608 -s 1 -d 0 -p ack -e 40 -c 0 -i 74 -a 0 -x {1.0 0.0 30 ------- null}
+ -t 0.00108608 -s 0 -d 1 -p tcp -e 1040 -c 0 -i 87 -a 0 -x {0.0 1.0 50 ------N null}
- -t 0.00110176 -s 0 -d 1 -p tcp -e 1040 -c 0 -i 75 -a 0 -x {0.0 1.0 44 ------N null}
h -t 0.00110176 -s 0 -d 1 -p tcp -e 1040 -c 0 -i 75 -a 0 -x {0.0 1.0 -1 ------N null}
r -t 0.00110192 -s 0 -d 1 -p tcp -e 1040 -c 0 -i 61 -a 0 -x {0.0 1.0 37 ------N null}
+ -t 0.00110192 -s 1 -d 0 -p ack -e 40 -c 0 -i 88 -a 0 -x {1.0 0.0 37 ------- null}
- -t 0.00110192 -s 1 -d 0 -p ack -e 40 -c 0 -i 88 -a 0 -x {1.0 0.0 37 ------- null}
h -t 0.00110192 -s 1 -d 0 -p ack -e 40 -c 0 -i 88 -a 0 -x {1.0 0.0 -1 ------- null}
r -t 0.00110272 -s 1 -d 0 -p ack -e 40 -c 0 -i 76 -a 0 -x {1.0 0.0 31 ------- null}
+ -t 0.00110272 -s 0 -d 1 -p tcp -e 1040 -c 0 -i 89 -a 0 -x {0.0 1.0 51 ------N null}
- -t 0.0011184 -s 0 -d 1 -p tcp -e 1040 -c 0 -i 77 -a 0 -x {0.0 1.0 45 ------N null}
h -t 0.0011184 -s 0 -d 1 -p tcp -e 1040 -c 0 -i 77 -a 0 -x {0.0 1.0 -1 ------N null}
r -t 0.00111856 -s 0 -d 1 -p tcp -e 1040 -c 0 -i 63 -a 0 -x {0.0 1.0 38 ------N null}
+ -t 0.00111856 -s 1 -d 0 -p ack -e 40 -c 0 -i 90 -a 0 -x {1.0 0.0 38 ------- null}
- -t 0.00111856 -s 1 -d 0 -p ack -e 40 -c 0 -i 90 -a 0 -x {1.0 0.0 38 ------- null}
h -t 0.00111856 -s 1 -d 0 -p ack -e 40 -c 0 -i 90 -a 0 -x {1.0 0.0 -1 ------- null}
r -t 0.00111936 -s 1 -d 0 -p ack -e 40 -c 0 -i 78 -a 0 -x {1.0 0.0 32 ------- null}
+ -t 0.00111936 -s 0 -d 1 -p tcp -e 1040 -c 0 -i 91 -a 0 -x {0.0 1.0 52 ------N null}
- -t 0.00113504 -s 0 -d 1 -p tcp -e 1040 -c 0 -i 79 -a 0 -x {0.0 1.0 46 ------N null}
h -t 0.00113504 -s 0 -d 1 -p tcp -e 1040 -c 0 -i 79 -a 0 -x {0.0 1.0 -1 ------N null}
r -t 0.0011352 -s 0 -d 1 -p tcp -e 1040 -c 0 -i 65 -a 0 -x {0.0 1.0 39 ------N null}
+ -t 0.0011352 -s 1 -d 0 -p ack -e 40 -c 0 -i 92 -a 0 -x {1.0 0.0 39 ------- null}
- -t 0.0011352 -s 1 -d 0 -p ack -e 40 -c 0 -i 92 -a 0 -x {1.0 0.0 39 ------- null}
h -t 0.0011352 -s 1 -d 0 -p ack -e 40 -c 0 -i 92 -a 0 -x {1.0 0.0 -1 ------- null}
r -t 0.001136 -s 1 -d 0 -p ack -e 40 -c 0 -i 80 -a 0 -x {1.0 0.0 33 ------- null}
+ -t 0.001136 -s 0 -d 1 -p tcp -e 1040 -c 0 -i 93 -a 0 -x {0.0 1.0 53 ------N null}
- -t 0.00115168 -s 0 -d 1 -p tcp -e 1040 -c 0 -i 81 -a 0 -x {0.0 1.0 47 ------N null}
h -t 0.00115168 -s 0 -d 1 -p tcp -e 1040 -c 0 -i 81 -a 0 -x {0.0 1.0 -1 ------N null}
r -t 0.00115184 -s 0 -d 1 -p tcp -e 1040 -c 0 -i 67 -a 0 -x {0.0 1.0 40 ------N null}
+ -t 0.00115184 -s 1 -d 0 -p ack -e 40 -c 0 -i 94 -a 0 -x {1.0 0.0 40 ------- null}
- -t 0.00115184 -s 1 -d 0 -p ack -e 40 -c 0 -i 94 -a 0 -x {1.0 0.0 40 ------- null}